M 1.00000 2 (145.00, 638.00, 0.00), (500.00, 300.00), 10.00
M 1.00000 11 (558.00, 475.00, 0.00), (363.00, 287.00), 30.00
s 1.000000000 _3_ AGT  --- 0 tcp 40 [0 0 0 0] ------- [3:0 8:0 32 0] [0 0] 0 0
r 1.000000000 _3_ RTR  --- 0 tcp 40 [0 0 0 0] ------- [3:0 8:0 32 0] [0 0] 0 0
s 1.000000000 _3_ RTR  --- 0 AODV 48 [0 0 0 0] ------- [3:255 -1:255 30 0] [0x2 1 1 [8 0] [3 4]] (REQUEST)
s 1.000635000 _3_ MAC  --- 0 AODV 106 [0 ffffffff 3 800] ------- [3:255 -1:255 30 0] [0x2 1 1 [8 0] [3 4]] (REQUEST)
r 1.001483531 _2_ MAC  --- 0 AODV 48 [0 ffffffff 3 800] ------- [3:255 -1:255 30 0] [0x2 1 1 [8 0] [3 4]] (REQUEST)
r 1.001483583 _1_ MAC  --- 0 AODV 48 [0 ffffffff 3 800] ------- [3:255 -1:255 30 0] [0x2 1 1 [8 0] [3 4]] (REQUEST)
r 1.001483651 _14_ MAC  --- 0 AODV 48 [0 ffffffff 3 800] ------- [3:255 -1:255 30 0] [0x2 1 1 [8 0] [3 4]] (REQUEST)
r 1.001483677 _4_ MAC  --- 0 AODV 48 [0 ffffffff 3 800] ------- [3:255 -1:255 30 0] [0x2 1 1 [8 0] [3 4]] (REQUEST)
r 1.001508531 _2_ RTR  --- 0 AODV 48 [0 ffffffff 3 800] ------- [3:255 -1:255 30 0] [0x2 1 1 [8 0] [3 4]] (REQUEST)
r 1.001508583 _1_ RTR  --- 0 AODV 48 [0 ffffffff 3 800] ------- [3:255 -1:255 30 0] [0x2 1 1 [8 0] [3 4]] (REQUEST)
r 1.001508651 _14_ RTR  --- 0 AODV 48 [0 ffffffff 3 800] ------- [3:255 -1:255 30 0] [0x2 1 1 [8 0] [3 4]] (REQUEST)
r 1.001508677 _4_ RTR  --- 0 AODV 48 [0 ffffffff 3 800] ------- [3:255 -1:255 30 0] [0x2 1 1 [8 0] [3 4]] (REQUEST)
s 1.004638268 _14_ RTR  --- 0 AODV 48 [0 ffffffff 3 800] ------- [14:255 -1:255 29 0] [0x2 2 1 [8 0] [3 4]] (REQUEST)
s 1.004953268 _14_ MAC  --- 0 AODV 106 [0 ffffffff e 800] ------- [14:255 -1:255 29 0] [0x2 2 1 [8 0] [3 4]] (REQUEST)
r 1.005801817 _4_ MAC  --- 0 AODV 48 [0 ffffffff e 800] ------- [14:255 -1:255 29 0] [0x2 2 1 [8 0] [3 4]] (REQUEST)
r 1.005801919 _3_ MAC  --- 0 AODV 48 [0 ffffffff e 800] ------- [14:255 -1:255 29 0] [0x2 2 1 [8 0] [3 4]] (REQUEST)
r 1.005802022 _15_ MAC  --- 0 AODV 48 [0 ffffffff e 800] ------- [14:255 -1:255 29 0] [0x2 2 1 [8 0] [3 4]] (REQUEST)
r 1.005802085 _11_ MAC  --- 0 AODV 48 [0 ffffffff e 800] ------- [14:255 -1:255 29 0] [0x2 2 1 [8 0] [3 4]] (REQUEST)
r 1.005826817 _4_ RTR  --- 0 AODV 48 [0 ffffffff e 800] ------- [14:255 -1:255 29 0] [0x2 2 1 [8 0] [3 4]] (REQUEST)
r 1.005826919 _3_ RTR  --- 0 AODV 48 [0 ffffffff e 800] ------- [14:255 -1:255 29 0] [0x2 2 1 [8 0] [3 4]] (REQUEST)
r 1.005827022 _15_ RTR  --- 0 AODV 48 [0 ffffffff e 800] ------- [14:255 -1:255 29 0] [0x2 2 1 [8 0] [3 4]] (REQUEST)
r 1.005827085 _11_ RTR  --- 0 AODV 48 [0 ffffffff e 800] ------- [14:255 -1:255 29 0] [0x2 2 1 [8 0] [3 4]] (REQUEST)
s 1.005920265 _2_ RTR  --- 0 AODV 48 [0 ffffffff 3 800] ------- [2:255 -1:255 29 0] [0x2 2 1 [8 0] [3 4]] (REQUEST)
s 1.006256433 _2_ MAC  --- 0 AODV 106 [0 ffffffff 2 800] ------- [2:255 -1:255 29 0] [0x2 2 1 [8 0] [3 4]] (REQUEST)
r 1.007104861 _0_ MAC  --- 0 AODV 48 [0 ffffffff 2 800] ------- [2:255 -1:255 29 0] [0x2 2 1 [8 0] [3 4]] (REQUEST)
r 1.007104893 _1_ MAC  --- 0 AODV 48 [0 ffffffff 2 800] ------- [2:255 -1:255 29 0] [0x2 2 1 [8 0] [3 4]] (REQUEST)
r 1.007104964 _3_ MAC  --- 0 AODV 48 [0 ffffffff 2 800] ------- [2:255 -1:255 29 0] [0x2 2 1 [8 0] [3 4]] (REQUEST)
r 1.007105132 _6_ MAC  --- 0 AODV 48 [0 ffffffff 2 800] ------- [2:255 -1:255 29 0] [0x2 2 1 [8 0] [3 4]] (REQUEST)
r 1.007129861 _0_ RTR  --- 0 AODV 48 [0 ffffffff 2 800] ------- [2:255 -1:255 29 0] [0x2 2 1 [8 0] [3 4]] (REQUEST)
r 1.007129893 _1_ RTR  --- 0 AODV 48 [0 ffffffff 2 800] ------- [2:255 -1:255 29 0] [0x2 2 1 [8 0] [3 4]] (REQUEST)
r 1.007129964 _3_ RTR  --- 0 AODV 48 [0 ffffffff 2 800] ------- [2:255 -1:255 29 0] [0x2 2 1 [8 0] [3 4]] (REQUEST)
r 1.007130132 _6_ RTR  --- 0 AODV 48 [0 ffffffff 2 800] ------- [2:255 -1:255 29 0] [0x2 2 1 [8 0] [3 4]] (REQUEST)
s 1.008268215 _6_ RTR  --- 0 AODV 48 [0 ffffffff 2 800] ------- [6:255 -1:255 28 0] [0x2 3 1 [8 0] [3 4]] (REQUEST)
s 1.008583215 _6_ MAC  --- 0 AODV 106 [0 ffffffff 6 800] ------- [6:255 -1:255 28 0] [0x2 3 1 [8 0] [3 4]] (REQUEST)
s 1.008917813 _15_ RTR  --- 0 AODV 48 [0 ffffffff e 800] ------- [15:255 -1:255 28 0] [0x2 3 1 [8 0] [3 4]] (REQUEST)
r 1.009431636 _1_ MAC  --- 0 AODV 48 [0 ffffffff 6 800] ------- [6:255 -1:255 28 0] [0x2 3 1 [8 0] [3 4]] (REQUEST)
r 1.009431720 _0_ MAC  --- 0 AODV 48 [0 ffffffff 6 800] ------- [6:255 -1:255 28 0] [0x2 3 1 [8 0] [3 4]] (REQUEST)
r 1.009431840 _7_ MAC  --- 0 AODV 48 [0 ffffffff 6 800] ------- [6:255 -1:255 28 0] [0x2 3 1 [8 0] [3 4]] (REQUEST)
r 1.009431913 _2_ MAC  --- 0 AODV 48 [0 ffffffff 6 800] ------- [6:255 -1:255 28 0] [0x2 3 1 [8 0] [3 4]] (REQUEST)
r 1.009431931 _5_ MAC  --- 0 AODV 48 [0 ffffffff 6 800] ------- [6:255 -1:255 28 0] [0x2 3 1 [8 0] [3 4]] (REQUEST)
r 1.009456636 _1_ RTR  --- 0 AODV 48 [0 ffffffff 6 800] ------- [6:255 -1:255 28 0] [0x2 3 1 [8 0] [3 4]] (REQUEST)
r 1.009456720 _0_ RTR  --- 0 AODV 48 [0 ffffffff 6 800] ------- [6:255 -1:255 28 0] [0x2 3 1 [8 0] [3 4]] (REQUEST)
r 1.009456840 _7_ RTR  --- 0 AODV 48 [0 ffffffff 6 800] ------- [6:255 -1:255 28 0] [0x2 3 1 [8 0] [3 4]] (REQUEST)
r 1.009456913 _2_ RTR  --- 0 AODV 48 [0 ffffffff 6 800] ------- [6:255 -1:255 28 0] [0x2 3 1 [8 0] [3 4]] (REQUEST)
r 1.009456931 _5_ RTR  --- 0 AODV 48 [0 ffffffff 6 800] ------- [6:255 -1:255 28 0] [0x2 3 1 [8 0] [3 4]] (REQUEST)
s 1.009500138 _1_ RTR  --- 0 AODV 48 [0 ffffffff 3 800] ------- [1:255 -1:255 29 0] [0x2 2 1 [8 0] [3 4]] (REQUEST)
s 1.009673438 _4_ RTR  --- 0 AODV 48 [0 ffffffff 3 800] ------- [4:255 -1:255 29 0] [0x2 2 1 [8 0] [3 4]] (REQUEST)
s 1.009775138 _1_ MAC  --- 0 AODV 106 [0 ffffffff 1 800] ------- [1:255 -1:255 29 0] [0x2 2 1 [8 0] [3 4]] (REQUEST)
s 1.010398228 _7_ RTR  --- 0 AODV 48 [0 ffffffff 6 800] ------- [7:255 -1:255 27 0] [0x2 4 1 [8 0] [3 4]] (REQUEST)
r 1.010623559 _6_ MAC  --- 0 AODV 48 [0 ffffffff 1 800] ------- [1:255 -1:255 29 0] [0x2 2 1 [8 0] [3 4]] (REQUEST)
r 1.010623597 _2_ MAC  --- 0 AODV 48 [0 ffffffff 1 800] ------- [1:255 -1:255 29 0] [0x2 2 1 [8 0] [3 4]] (REQUEST)
r 1.010623717 _0_ MAC  --- 0 AODV 48 [0 ffffffff 1 800] ------- [1:255 -1:255 29 0] [0x2 2 1 [8 0] [3 4]] (REQUEST)
r 1.010623722 _3_ MAC  --- 0 AODV 48 [0 ffffffff 1 800] ------- [1:255 -1:255 29 0] [0x2 2 1 [8 0] [3 4]] (REQUEST)
r 1.010623750 _5_ MAC  --- 0 AODV 48 [0 ffffffff 1 800] ------- [1:255 -1:255 29 0] [0x2 2 1 [8 0] [3 4]] (REQUEST)
r 1.010623807 _4_ MAC  --- 0 AODV 48 [0 ffffffff 1 800] ------- [1:255 -1:255 29 0] [0x2 2 1 [8 0] [3 4]] (REQUEST)
r 1.010623918 _7_ MAC  --- 0 AODV 48 [0 ffffffff 1 800] ------- [1:255 -1:255 29 0] [0x2 2 1 [8 0] [3 4]] (REQUEST)
r 1.010648559 _6_ RTR  --- 0 AODV 48 [0 ffffffff 1 800] ------- [1:255 -1:255 29 0] [0x2 2 1 [8 0] [3 4]] (REQUEST)
r 1.010648597 _2_ RTR  --- 0 AODV 48 [0 ffffffff 1 800] ------- [1:255 -1:255 29 0] [0x2 2 1 [8 0] [3 4]] (REQUEST)
r 1.010648717 _0_ RTR  --- 0 AODV 48 [0 ffffffff 1 800] ------- [1:255 -1:255 29 0] [0x2 2 1 [8 0] [3 4]] (REQUEST)
r 1.010648722 _3_ RTR  --- 0 AODV 48 [0 ffffffff 1 800] ------- [1:255 -1:255 29 0] [0x2 2 1 [8 0] [3 4]] (REQUEST)
r 1.010648750 _5_ RTR  --- 0 AODV 48 [0 ffffffff 1 800] ------- [1:255 -1:255 29 0] [0x2 2 1 [8 0] [3 4]] (REQUEST)
r 1.010648807 _4_ RTR  --- 0 AODV 48 [0 ffffffff 1 800] ------- [1:255 -1:255 29 0] [0x2 2 1 [8 0] [3 4]] (REQUEST)
r 1.010648918 _7_ RTR  --- 0 AODV 48 [0 ffffffff 1 800] ------- [1:255 -1:255 29 0] [0x2 2 1 [8 0] [3 4]] (REQUEST)
s 1.010693918 _7_ MAC  --- 0 AODV 106 [0 ffffffff 7 800] ------- [7:255 -1:255 27 0] [0x2 4 1 [8 0] [3 4]] (REQUEST)
r 1.011542342 _5_ MAC  --- 0 AODV 48 [0 ffffffff 7 800] ------- [7:255 -1:255 27 0] [0x2 4 1 [8 0] [3 4]] (REQUEST)
r 1.011542428 _8_ MAC  --- 0 AODV 48 [0 ffffffff 7 800] ------- [7:255 -1:255 27 0] [0x2 4 1 [8 0] [3 4]] (REQUEST)
r 1.011542519 _9_ MAC  --- 0 AODV 48 [0 ffffffff 7 800] ------- [7:255 -1:255 27 0] [0x2 4 1 [8 0] [3 4]] (REQUEST)
r 1.011542543 _6_ MAC  --- 0 AODV 48 [0 ffffffff 7 800] ------- [7:255 -1:255 27 0] [0x2 4 1 [8 0] [3 4]] (REQUEST)
r 1.011542698 _1_ MAC  --- 0 AODV 48 [0 ffffffff 7 800] ------- [7:255 -1:255 27 0] [0x2 4 1 [8 0] [3 4]] (REQUEST)
r 1.011567342 _5_ RTR  --- 0 AODV 48 [0 ffffffff 7 800] ------- [7:255 -1:255 27 0] [0x2 4 1 [8 0] [3 4]] (REQUEST)
r 1.011567428 _8_ RTR  --- 0 AODV 48 [0 ffffffff 7 800] ------- [7:255 -1:255 27 0] [0x2 4 1 [8 0] [3 4]] (REQUEST)
s 1.011567428 _8_ RTR  --- 0 AODV 44 [0 0 0 0] ------- [8:255 3:255 30 7] [0x4 1 [8 4] 10.000000] (REPLY)
r 1.011567519 _9_ RTR  --- 0 AODV 48 [0 ffffffff 7 800] ------- [7:255 -1:255 27 0] [0x2 4 1 [8 0] [3 4]] (REQUEST)
r 1.011567543 _6_ RTR  --- 0 AODV 48 [0 ffffffff 7 800] ------- [7:255 -1:255 27 0] [0x2 4 1 [8 0] [3 4]] (REQUEST)
r 1.011567698 _1_ RTR  --- 0 AODV 48 [0 ffffffff 7 800] ------- [7:255 -1:255 27 0] [0x2 4 1 [8 0] [3 4]] (REQUEST)
s 1.012117339 _15_ MAC  --- 0 AODV 106 [0 ffffffff f 800] ------- [15:255 -1:255 28 0] [0x2 3 1 [8 0] [3 4]] (REQUEST)
r 1.012965771 _11_ MAC  --- 0 AODV 48 [0 ffffffff f 800] ------- [15:255 -1:255 28 0] [0x2 3 1 [8 0] [3 4]] (REQUEST)
r 1.012965833 _16_ MAC  --- 0 AODV 48 [0 ffffffff f 800] ------- [15:255 -1:255 28 0] [0x2 3 1 [8 0] [3 4]] (REQUEST)
r 1.012966058 _12_ MAC  --- 0 AODV 48 [0 ffffffff f 800] ------- [15:255 -1:255 28 0] [0x2 3 1 [8 0] [3 4]] (REQUEST)
r 1.012966079 _4_ MAC  --- 0 AODV 48 [0 ffffffff f 800] ------- [15:255 -1:255 28 0] [0x2 3 1 [8 0] [3 4]] (REQUEST)
r 1.012966093 _14_ MAC  --- 0 AODV 48 [0 ffffffff f 800] ------- [15:255 -1:255 28 0] [0x2 3 1 [8 0] [3 4]] (REQUEST)
r 1.012990771 _11_ RTR  --- 0 AODV 48 [0 ffffffff f 800] ------- [15:255 -1:255 28 0] [0x2 3 1 [8 0] [3 4]] (REQUEST)
r 1.012990833 _16_ RTR  --- 0 AODV 48 [0 ffffffff f 800] ------- [15:255 -1:255 28 0] [0x2 3 1 [8 0] [3 4]] (REQUEST)
r 1.012991058 _12_ RTR  --- 0 AODV 48 [0 ffffffff f 800] ------- [15:255 -1:255 28 0] [0x2 3 1 [8 0] [3 4]] (REQUEST)
r 1.012991079 _4_ RTR  --- 0 AODV 48 [0 ffffffff f 800] ------- [15:255 -1:255 28 0] [0x2 3 1 [8 0] [3 4]] (REQUEST)
r 1.012991093 _14_ RTR  --- 0 AODV 48 [0 ffffffff f 800] ------- [15:255 -1:255 28 0] [0x2 3 1 [8 0] [3 4]] (REQUEST)
s 1.013056079 _4_ MAC  --- 0 AODV 106 [0 ffffffff 4 800] ------- [4:255 -1:255 29 0] [0x2 2 1 [8 0] [3 4]] (REQUEST)
s 1.013530537 _0_ RTR  --- 0 AODV 48 [0 ffffffff 2 800] ------- [0:255 -1:255 28 0] [0x2 3 1 [8 0] [3 4]] (REQUEST)
r 1.013904567 _5_ MAC  --- 0 AODV 48 [0 ffffffff 4 800] ------- [4:255 -1:255 29 0] [0x2 2 1 [8 0] [3 4]] (REQUEST)
r 1.013904567 _11_ MAC  --- 0 AODV 48 [0 ffffffff 4 800] ------- [4:255 -1:255 29 0] [0x2 2 1 [8 0] [3 4]] (REQUEST)
r 1.013904628 _14_ MAC  --- 0 AODV 48 [0 ffffffff 4 800] ------- [4:255 -1:255 29 0] [0x2 2 1 [8 0] [3 4]] (REQUEST)
r 1.013904748 _1_ MAC  --- 0 AODV 48 [0 ffffffff 4 800] ------- [4:255 -1:255 29 0] [0x2 2 1 [8 0] [3 4]] (REQUEST)
r 1.013904757 _3_ MAC  --- 0 AODV 48 [0 ffffffff 4 800] ------- [4:255 -1:255 29 0] [0x2 2 1 [8 0] [3 4]] (REQUEST)
r 1.013904819 _15_ MAC  --- 0 AODV 48 [0 ffffffff 4 800] ------- [4:255 -1:255 29 0] [0x2 2 1 [8 0] [3 4]] (REQUEST)
r 1.013904889 _9_ MAC  --- 0 AODV 48 [0 ffffffff 4 800] ------- [4:255 -1:255 29 0] [0x2 2 1 [8 0] [3 4]] (REQUEST)
r 1.013929567 _5_ RTR  --- 0 AODV 48 [0 ffffffff 4 800] ------- [4:255 -1:255 29 0] [0x2 2 1 [8 0] [3 4]] (REQUEST)
r 1.013929567 _11_ RTR  --- 0 AODV 48 [0 ffffffff 4 800] ------- [4:255 -1:255 29 0] [0x2 2 1 [8 0] [3 4]] (REQUEST)
r 1.013929628 _14_ RTR  --- 0 AODV 48 [0 ffffffff 4 800] ------- [4:255 -1:255 29 0] [0x2 2 1 [8 0] [3 4]] (REQUEST)
r 1.013929748 _1_ RTR  --- 0 AODV 48 [0 ffffffff 4 800] ------- [4:255 -1:255 29 0] [0x2 2 1 [8 0] [3 4]] (REQUEST)
r 1.013929757 _3_ RTR  --- 0 AODV 48 [0 ffffffff 4 800] ------- [4:255 -1:255 29 0] [0x2 2 1 [8 0] [3 4]] (REQUEST)
r 1.013929819 _15_ RTR  --- 0 AODV 48 [0 ffffffff 4 800] ------- [4:255 -1:255 29 0] [0x2 2 1 [8 0] [3 4]] (REQUEST)
r 1.013929889 _9_ RTR  --- 0 AODV 48 [0 ffffffff 4 800] ------- [4:255 -1:255 29 0] [0x2 2 1 [8 0] [3 4]] (REQUEST)
s 1.014190320 _11_ RTR  --- 0 AODV 48 [0 ffffffff e 800] ------- [11:255 -1:255 28 0] [0x2 3 1 [8 0] [3 4]] (REQUEST)
s 1.014359324 _0_ MAC  --- 0 AODV 106 [0 ffffffff 0 800] ------- [0:255 -1:255 28 0] [0x2 3 1 [8 0] [3 4]] (REQUEST)
s 1.015162428 _16_ RTR  --- 0 AODV 48 [0 ffffffff f 800] ------- [16:255 -1:255 27 0] [0x2 4 1 [8 0] [3 4]] (REQUEST)
r 1.015207751 _2_ MAC  --- 0 AODV 48 [0 ffffffff 0 800] ------- [0:255 -1:255 28 0] [0x2 3 1 [8 0] [3 4]] (REQUEST)
r 1.015207829 _6_ MAC  --- 0 AODV 48 [0 ffffffff 0 800] ------- [0:255 -1:255 28 0] [0x2 3 1 [8 0] [3 4]] (REQUEST)
r 1.015207903 _1_ MAC  --- 0 AODV 48 [0 ffffffff 0 800] ------- [0:255 -1:255 28 0] [0x2 3 1 [8 0] [3 4]] (REQUEST)
r 1.015232751 _2_ RTR  --- 0 AODV 48 [0 ffffffff 0 800] ------- [0:255 -1:255 28 0] [0x2 3 1 [8 0] [3 4]] (REQUEST)
r 1.015232829 _6_ RTR  --- 0 AODV 48 [0 ffffffff 0 800] ------- [0:255 -1:255 28 0] [0x2 3 1 [8 0] [3 4]] (REQUEST)
r 1.015232903 _1_ RTR  --- 0 AODV 48 [0 ffffffff 0 800] ------- [0:255 -1:255 28 0] [0x2 3 1 [8 0] [3 4]] (REQUEST)
s 1.015377428 _16_ MAC  --- 0 AODV 106 [0 ffffffff 10 800] ------- [16:255 -1:255 27 0] [0x2 4 1 [8 0] [3 4]] (REQUEST)
s 1.015403315 _12_ RTR  --- 0 AODV 48 [0 ffffffff f 800] ------- [12:255 -1:255 27 0] [0x2 4 1 [8 0] [3 4]] (REQUEST)
r 1.016225922 _15_ MAC  --- 0 AODV 48 [0 ffffffff 10 800] ------- [16:255 -1:255 27 0] [0x2 4 1 [8 0] [3 4]] (REQUEST)
r 1.016225981 _13_ MAC  --- 0 AODV 48 [0 ffffffff 10 800] ------- [16:255 -1:255 27 0] [0x2 4 1 [8 0] [3 4]] (REQUEST)
r 1.016226028 _12_ MAC  --- 0 AODV 48 [0 ffffffff 10 800] ------- [16:255 -1:255 27 0] [0x2 4 1 [8 0] [3 4]] (REQUEST)
r 1.016226100 _11_ MAC  --- 0 AODV 48 [0 ffffffff 10 800] ------- [16:255 -1:255 27 0] [0x2 4 1 [8 0] [3 4]] (REQUEST)
r 1.016250922 _15_ RTR  --- 0 AODV 48 [0 ffffffff 10 800] ------- [16:255 -1:255 27 0] [0x2 4 1 [8 0] [3 4]] (REQUEST)
r 1.016250981 _13_ RTR  --- 0 AODV 48 [0 ffffffff 10 800] ------- [16:255 -1:255 27 0] [0x2 4 1 [8 0] [3 4]] (REQUEST)
r 1.016251028 _12_ RTR  --- 0 AODV 48 [0 ffffffff 10 800] ------- [16:255 -1:255 27 0] [0x2 4 1 [8 0] [3 4]] (REQUEST)
r 1.016251100 _11_ RTR  --- 0 AODV 48 [0 ffffffff 10 800] ------- [16:255 -1:255 27 0] [0x2 4 1 [8 0] [3 4]] (REQUEST)
s 1.016556028 _12_ MAC  --- 0 AODV 106 [0 ffffffff c 800] ------- [12:255 -1:255 27 0] [0x2 4 1 [8 0] [3 4]] (REQUEST)
s 1.016556100 _11_ MAC  --- 0 AODV 106 [0 ffffffff b 800] ------- [11:255 -1:255 28 0] [0x2 3 1 [8 0] [3 4]] (REQUEST)
D 1.016556675 _9_ MAC  COL 0 AODV 106 [0 ffffffff c 800] ------- [12:255 -1:255 27 0] [0x2 4 1 [8 0] [3 4]] (REQUEST)
D 1.016556747 _15_ MAC  COL 0 AODV 106 [0 ffffffff b 800] ------- [11:255 -1:255 28 0] [0x2 3 1 [8 0] [3 4]] (REQUEST)
D 1.016556773 _16_ MAC  COL 0 AODV 106 [0 ffffffff c 800] ------- [12:255 -1:255 27 0] [0x2 4 1 [8 0] [3 4]] (REQUEST)
D 1.016556838 _5_ MAC  COL 0 AODV 106 [0 ffffffff b 800] ------- [11:255 -1:255 28 0] [0x2 3 1 [8 0] [3 4]] (REQUEST)
D 1.016557085 _8_ MAC  COL 0 AODV 106 [0 ffffffff c 800] ------- [12:255 -1:255 27 0] [0x2 4 1 [8 0] [3 4]] (REQUEST)
D 1.016557300 _14_ MAC  COL 0 AODV 106 [0 ffffffff b 800] ------- [11:255 -1:255 28 0] [0x2 3 1 [8 0] [3 4]] (REQUEST)
r 1.017404446 _13_ MAC  --- 0 AODV 48 [0 ffffffff c 800] ------- [12:255 -1:255 27 0] [0x2 4 1 [8 0] [3 4]] (REQUEST)
r 1.017404473 _10_ MAC  --- 0 AODV 48 [0 ffffffff c 800] ------- [12:255 -1:255 27 0] [0x2 4 1 [8 0] [3 4]] (REQUEST)
r 1.017404588 _4_ MAC  --- 0 AODV 48 [0 ffffffff b 800] ------- [11:255 -1:255 28 0] [0x2 3 1 [8 0] [3 4]] (REQUEST)
D 1.017404675 _9_ MAC  COL 0 AODV 106 [0 ffffffff b 800] ------- [11:255 -1:255 28 0] [0x2 3 1 [8 0] [3 4]] (REQUEST)
D 1.017404747 _15_ MAC  COL 0 AODV 106 [0 ffffffff c 800] ------- [12:255 -1:255 27 0] [0x2 4 1 [8 0] [3 4]] (REQUEST)
D 1.017404773 _16_ MAC  COL 0 AODV 106 [0 ffffffff b 800] ------- [11:255 -1:255 28 0] [0x2 3 1 [8 0] [3 4]] (REQUEST)
D 1.017404838 _5_ MAC  COL 0 AODV 106 [0 ffffffff c 800] ------- [12:255 -1:255 27 0] [0x2 4 1 [8 0] [3 4]] (REQUEST)
r 1.017429446 _13_ RTR  --- 0 AODV 48 [0 ffffffff c 800] ------- [12:255 -1:255 27 0] [0x2 4 1 [8 0] [3 4]] (REQUEST)
r 1.017429473 _10_ RTR  --- 0 AODV 48 [0 ffffffff c 800] ------- [12:255 -1:255 27 0] [0x2 4 1 [8 0] [3 4]] (REQUEST)
r 1.017429588 _4_ RTR  --- 0 AODV 48 [0 ffffffff b 800] ------- [11:255 -1:255 28 0] [0x2 3 1 [8 0] [3 4]] (REQUEST)
s 1.017527217 _5_ RTR  --- 0 AODV 48 [0 ffffffff 6 800] ------- [5:255 -1:255 27 0] [0x2 4 1 [8 0] [3 4]] (REQUEST)
s 1.017879085 _8_ MAC  --- 0 ARP 86 [0 ffffffff 8 806] ------- [REQUEST 8/8 0/7]
s 1.018124633 _13_ RTR  --- 0 AODV 48 [0 ffffffff 10 800] ------- [13:255 -1:255 26 0] [0x2 5 1 [8 0] [3 4]] (REQUEST)
s 1.018490587 _9_ RTR  --- 0 AODV 48 [0 ffffffff 7 800] ------- [9:255 -1:255 26 0] [0x2 5 1 [8 0] [3 4]] (REQUEST)
r 1.018567497 _9_ MAC  --- 0 ARP 28 [0 ffffffff 8 806] ------- [REQUEST 8/8 0/7]
r 1.018567568 _10_ MAC  --- 0 ARP 28 [0 ffffffff 8 806] ------- [REQUEST 8/8 0/7]
r 1.018567595 _7_ MAC  --- 0 ARP 28 [0 ffffffff 8 806] ------- [REQUEST 8/8 0/7]
r 1.018567793 _5_ MAC  --- 0 ARP 28 [0 ffffffff 8 806] ------- [REQUEST 8/8 0/7]
r 1.018567854 _12_ MAC  --- 0 ARP 28 [0 ffffffff 8 806] ------- [REQUEST 8/8 0/7]
s 1.018737497 _9_ MAC  --- 0 AODV 106 [0 ffffffff 9 800] ------- [9:255 -1:255 26 0] [0x2 5 1 [8 0] [3 4]] (REQUEST)
r 1.019585909 _8_ MAC  --- 0 AODV 48 [0 ffffffff 9 800] ------- [9:255 -1:255 26 0] [0x2 5 1 [8 0] [3 4]] (REQUEST)
r 1.019585913 _10_ MAC  --- 0 AODV 48 [0 ffffffff 9 800] ------- [9:255 -1:255 26 0] [0x2 5 1 [8 0] [3 4]] (REQUEST)
r 1.019585915 _12_ MAC  --- 0 AODV 48 [0 ffffffff 9 800] ------- [9:255 -1:255 26 0] [0x2 5 1 [8 0] [3 4]] (REQUEST)
r 1.019586000 _5_ MAC  --- 0 AODV 48 [0 ffffffff 9 800] ------- [9:255 -1:255 26 0] [0x2 5 1 [8 0] [3 4]] (REQUEST)
r 1.019586072 _11_ MAC  --- 0 AODV 48 [0 ffffffff 9 800] ------- [9:255 -1:255 26 0] [0x2 5 1 [8 0] [3 4]] (REQUEST)
r 1.019586098 _7_ MAC  --- 0 AODV 48 [0 ffffffff 9 800] ------- [9:255 -1:255 26 0] [0x2 5 1 [8 0] [3 4]] (REQUEST)
r 1.019586276 _13_ MAC  --- 0 AODV 48 [0 ffffffff 9 800] ------- [9:255 -1:255 26 0] [0x2 5 1 [8 0] [3 4]] (REQUEST)
r 1.019586307 _4_ MAC  --- 0 AODV 48 [0 ffffffff 9 800] ------- [9:255 -1:255 26 0] [0x2 5 1 [8 0] [3 4]] (REQUEST)
r 1.019610909 _8_ RTR  --- 0 AODV 48 [0 ffffffff 9 800] ------- [9:255 -1:255 26 0] [0x2 5 1 [8 0] [3 4]] (REQUEST)
r 1.019610913 _10_ RTR  --- 0 AODV 48 [0 ffffffff 9 800] ------- [9:255 -1:255 26 0] [0x2 5 1 [8 0] [3 4]] (REQUEST)
r 1.019610915 _12_ RTR  --- 0 AODV 48 [0 ffffffff 9 800] ------- [9:255 -1:255 26 0] [0x2 5 1 [8 0] [3 4]] (REQUEST)
r 1.019611000 _5_ RTR  --- 0 AODV 48 [0 ffffffff 9 800] ------- [9:255 -1:255 26 0] [0x2 5 1 [8 0] [3 4]] (REQUEST)
r 1.019611072 _11_ RTR  --- 0 AODV 48 [0 ffffffff 9 800] ------- [9:255 -1:255 26 0] [0x2 5 1 [8 0] [3 4]] (REQUEST)
r 1.019611098 _7_ RTR  --- 0 AODV 48 [0 ffffffff 9 800] ------- [9:255 -1:255 26 0] [0x2 5 1 [8 0] [3 4]] (REQUEST)
r 1.019611276 _13_ RTR  --- 0 AODV 48 [0 ffffffff 9 800] ------- [9:255 -1:255 26 0] [0x2 5 1 [8 0] [3 4]] (REQUEST)
r 1.019611307 _4_ RTR  --- 0 AODV 48 [0 ffffffff 9 800] ------- [9:255 -1:255 26 0] [0x2 5 1 [8 0] [3 4]] (REQUEST)
s 1.019696276 _13_ MAC  --- 0 AODV 106 [0 ffffffff d 800] ------- [13:255 -1:255 26 0] [0x2 5 1 [8 0] [3 4]] (REQUEST)
r 1.020544694 _12_ MAC  --- 0 AODV 48 [0 ffffffff d 800] ------- [13:255 -1:255 26 0] [0x2 5 1 [8 0] [3 4]] (REQUEST)
r 1.020544829 _16_ MAC  --- 0 AODV 48 [0 ffffffff d 800] ------- [13:255 -1:255 26 0] [0x2 5 1 [8 0] [3 4]] (REQUEST)
r 1.020544832 _10_ MAC  --- 0 AODV 48 [0 ffffffff d 800] ------- [13:255 -1:255 26 0] [0x2 5 1 [8 0] [3 4]] (REQUEST)
r 1.020545055 _9_ MAC  --- 0 AODV 48 [0 ffffffff d 800] ------- [13:255 -1:255 26 0] [0x2 5 1 [8 0] [3 4]] (REQUEST)
r 1.020545101 _11_ MAC  --- 0 AODV 48 [0 ffffffff d 800] ------- [13:255 -1:255 26 0] [0x2 5 1 [8 0] [3 4]] (REQUEST)
r 1.020569694 _12_ RTR  --- 0 AODV 48 [0 ffffffff d 800] ------- [13:255 -1:255 26 0] [0x2 5 1 [8 0] [3 4]] (REQUEST)
r 1.020569829 _16_ RTR  --- 0 AODV 48 [0 ffffffff d 800] ------- [13:255 -1:255 26 0] [0x2 5 1 [8 0] [3 4]] (REQUEST)
r 1.020569832 _10_ RTR  --- 0 AODV 48 [0 ffffffff d 800] ------- [13:255 -1:255 26 0] [0x2 5 1 [8 0] [3 4]] (REQUEST)
r 1.020570055 _9_ RTR  --- 0 AODV 48 [0 ffffffff d 800] ------- [13:255 -1:255 26 0] [0x2 5 1 [8 0] [3 4]] (REQUEST)
r 1.020570101 _11_ RTR  --- 0 AODV 48 [0 ffffffff d 800] ------- [13:255 -1:255 26 0] [0x2 5 1 [8 0] [3 4]] (REQUEST)
s 1.021299500 _5_ MAC  --- 0 AODV 106 [0 ffffffff 5 800] ------- [5:255 -1:255 27 0] [0x2 4 1 [8 0] [3 4]] (REQUEST)
s 1.021299653 _7_ MAC  --- 0 RTS 44 [52e 8 7 0] 
D 1.021300208 _8_ MAC  COL 0 RTS 44 [52e 8 7 0] 
r 1.022147987 _4_ MAC  --- 0 AODV 48 [0 ffffffff 5 800] ------- [5:255 -1:255 27 0] [0x2 4 1 [8 0] [3 4]] (REQUEST)
D 1.022148003 _9_ MAC  COL 0 AODV 106 [0 ffffffff 5 800] ------- [5:255 -1:255 27 0] [0x2 4 1 [8 0] [3 4]] (REQUEST)
D 1.022148112 _1_ MAC  COL 0 AODV 106 [0 ffffffff 5 800] ------- [5:255 -1:255 27 0] [0x2 4 1 [8 0] [3 4]] (REQUEST)
D 1.022148129 _11_ MAC  COL 0 AODV 106 [0 ffffffff 5 800] ------- [5:255 -1:255 27 0] [0x2 4 1 [8 0] [3 4]] (REQUEST)
D 1.022148208 _8_ MAC  COL 0 AODV 106 [0 ffffffff 5 800] ------- [5:255 -1:255 27 0] [0x2 4 1 [8 0] [3 4]] (REQUEST)
D 1.022148216 _6_ MAC  COL 0 AODV 106 [0 ffffffff 5 800] ------- [5:255 -1:255 27 0] [0x2 4 1 [8 0] [3 4]] (REQUEST)
D 1.022148311 _12_ MAC  COL 0 AODV 106 [0 ffffffff 5 800] ------- [5:255 -1:255 27 0] [0x2 4 1 [8 0] [3 4]] (REQUEST)
r 1.022172987 _4_ RTR  --- 0 AODV 48 [0 ffffffff 5 800] ------- [5:255 -1:255 27 0] [0x2 4 1 [8 0] [3 4]] (REQUEST)
s 1.023041924 _7_ MAC  --- 0 RTS 44 [52e 8 7 0] 
r 1.023394434 _8_ MAC  --- 0 RTS 44 [52e 8 7 0] 
s 1.023404434 _8_ MAC  --- 0 CTS 38 [3f4 7 0 0] 
r 1.023708944 _7_ MAC  --- 0 CTS 38 [3f4 7 0 0] 
s 1.023718944 _7_ MAC  --- 0 ARP 86 [13a 8 7 806] ------- [REPLY 7/7 8/8]
r 1.024407455 _8_ MAC  --- 0 ARP 28 [13a 8 7 806] ------- [REPLY 7/7 8/8]
s 1.024417455 _8_ MAC  --- 0 ACK 38 [0 7 0 0] 
r 1.024721965 _7_ MAC  --- 0 ACK 38 [0 7 0 0] 
s 1.024771455 _8_ MAC  --- 0 RTS 44 [5ae 7 8 0] 
r 1.025123965 _7_ MAC  --- 0 RTS 44 [5ae 7 8 0] 
s 1.025133965 _7_ MAC  --- 0 CTS 38 [474 8 0 0] 
r 1.025438476 _8_ MAC  --- 0 CTS 38 [474 8 0 0] 
s 1.025448476 _8_ MAC  --- 0 AODV 102 [13a 7 8 800] ------- [8:255 3:255 30 7] [0x4 1 [8 4] 10.000000] (REPLY)
r 1.026264986 _7_ MAC  --- 0 AODV 44 [13a 7 8 800] ------- [8:255 3:255 30 7] [0x4 1 [8 4] 10.000000] (REPLY)
s 1.026274986 _7_ MAC  --- 0 ACK 38 [0 8 0 0] 
r 1.026289986 _7_ RTR  --- 0 AODV 44 [13a 7 8 800] ------- [8:255 3:255 30 7] [0x4 1 [8 4] 10.000000] (REPLY)
f 1.026289986 _7_ RTR  --- 0 AODV 44 [13a 7 8 800] ------- [8:255 3:255 29 6] [0x4 2 [8 4] 10.000000] (REPLY)
s 1.026342952 _10_ RTR  --- 0 AODV 48 [0 ffffffff c 800] ------- [10:255 -1:255 26 0] [0x2 5 1 [8 0] [3 4]] (REQUEST)
r 1.026579496 _8_ MAC  --- 0 ACK 38 [0 8 0 0] 
s 1.026848986 _7_ MAC  --- 0 ARP 86 [0 ffffffff 7 806] ------- [REQUEST 7/7 0/6]
r 1.027537410 _5_ MAC  --- 0 ARP 28 [0 ffffffff 7 806] ------- [REQUEST 7/7 0/6]
r 1.027537496 _8_ MAC  --- 0 ARP 28 [0 ffffffff 7 806] ------- [REQUEST 7/7 0/6]
r 1.027537587 _9_ MAC  --- 0 ARP 28 [0 ffffffff 7 806] ------- [REQUEST 7/7 0/6]
r 1.027537611 _6_ MAC  --- 0 ARP 28 [0 ffffffff 7 806] ------- [REQUEST 7/7 0/6]
r 1.027537766 _1_ MAC  --- 0 ARP 28 [0 ffffffff 7 806] ------- [REQUEST 7/7 0/6]
s 1.027672611 _6_ MAC  --- 0 RTS 44 [52e 7 6 0] 
r 1.028025236 _7_ MAC  --- 0 RTS 44 [52e 7 6 0] 
s 1.028035236 _7_ MAC  --- 0 CTS 38 [3f4 6 0 0] 
r 1.028339861 _6_ MAC  --- 0 CTS 38 [3f4 6 0 0] 
s 1.028349861 _6_ MAC  --- 0 ARP 86 [13a 7 6 806] ------- [REPLY 6/6 7/7]
r 1.029038486 _7_ MAC  --- 0 ARP 28 [13a 7 6 806] ------- [REPLY 6/6 7/7]
s 1.029048486 _7_ MAC  --- 0 ACK 38 [0 6 0 0] 
r 1.029353111 _6_ MAC  --- 0 ACK 38 [0 6 0 0] 
s 1.029542486 _7_ MAC  --- 0 RTS 44 [5ae 6 7 0] 
r 1.029895111 _6_ MAC  --- 0 RTS 44 [5ae 6 7 0] 
s 1.029905111 _6_ MAC  --- 0 CTS 38 [474 7 0 0] 
r 1.030209736 _7_ MAC  --- 0 CTS 38 [474 7 0 0] 
s 1.030219736 _7_ MAC  --- 0 AODV 102 [13a 6 7 800] ------- [8:255 3:255 29 6] [0x4 2 [8 4] 10.000000] (REPLY)
r 1.031036361 _6_ MAC  --- 0 AODV 44 [13a 6 7 800] ------- [8:255 3:255 29 6] [0x4 2 [8 4] 10.000000] (REPLY)
s 1.031046361 _6_ MAC  --- 0 ACK 38 [0 7 0 0] 
r 1.031061361 _6_ RTR  --- 0 AODV 44 [13a 6 7 800] ------- [8:255 3:255 29 6] [0x4 2 [8 4] 10.000000] (REPLY)
f 1.031061361 _6_ RTR  --- 0 AODV 44 [13a 6 7 800] ------- [8:255 3:255 28 2] [0x4 3 [8 4] 10.000000] (REPLY)
r 1.031350987 _7_ MAC  --- 0 ACK 38 [0 7 0 0] 
s 1.031580361 _6_ MAC  --- 0 ARP 86 [0 ffffffff 6 806] ------- [REQUEST 6/6 0/2]
r 1.032268783 _1_ MAC  --- 0 ARP 28 [0 ffffffff 6 806] ------- [REQUEST 6/6 0/2]
r 1.032268866 _0_ MAC  --- 0 ARP 28 [0 ffffffff 6 806] ------- [REQUEST 6/6 0/2]
r 1.032268987 _7_ MAC  --- 0 ARP 28 [0 ffffffff 6 806] ------- [REQUEST 6/6 0/2]
r 1.032269060 _2_ MAC  --- 0 ARP 28 [0 ffffffff 6 806] ------- [REQUEST 6/6 0/2]
r 1.032269078 _5_ MAC  --- 0 ARP 28 [0 ffffffff 6 806] ------- [REQUEST 6/6 0/2]
s 1.032624060 _2_ MAC  --- 0 RTS 44 [52e 6 2 0] 
r 1.032976759 _6_ MAC  --- 0 RTS 44 [52e 6 2 0] 
s 1.032986759 _6_ MAC  --- 0 CTS 38 [3f4 2 0 0] 
r 1.033291457 _2_ MAC  --- 0 CTS 38 [3f4 2 0 0] 
s 1.033301457 _2_ MAC  --- 0 ARP 86 [13a 6 2 806] ------- [REPLY 2/2 6/6]
s 1.033726281 _10_ MAC  --- 0 AODV 106 [0 ffffffff a 800] ------- [10:255 -1:255 26 0] [0x2 5 1 [8 0] [3 4]] (REQUEST)
r 1.033990156 _6_ MAC  --- 0 ARP 28 [13a 6 2 806] ------- [REPLY 2/2 6/6]
s 1.034000156 _6_ MAC  --- 0 ACK 38 [0 2 0 0] 
r 1.034304854 _2_ MAC  --- 0 ACK 38 [0 2 0 0] 
D 1.034574697 _9_ MAC  COL 0 AODV 106 [0 ffffffff a 800] ------- [10:255 -1:255 26 0] [0x2 5 1 [8 0] [3 4]] (REQUEST)
D 1.034574727 _12_ MAC  COL 0 AODV 106 [0 ffffffff a 800] ------- [10:255 -1:255 26 0] [0x2 5 1 [8 0] [3 4]] (REQUEST)
D 1.034574765 _8_ MAC  COL 0 AODV 106 [0 ffffffff a 800] ------- [10:255 -1:255 26 0] [0x2 5 1 [8 0] [3 4]] (REQUEST)
r 1.034574837 _13_ MAC  --- 0 AODV 48 [0 ffffffff a 800] ------- [10:255 -1:255 26 0] [0x2 5 1 [8 0] [3 4]] (REQUEST)
r 1.034599837 _13_ RTR  --- 0 AODV 48 [0 ffffffff a 800] ------- [10:255 -1:255 26 0] [0x2 5 1 [8 0] [3 4]] (REQUEST)
s 1.035269803 _6_ MAC  --- 0 RTS 44 [5ae 2 6 0] 
r 1.035622502 _2_ MAC  --- 0 RTS 44 [5ae 2 6 0] 
s 1.035632502 _2_ MAC  --- 0 CTS 38 [474 6 0 0] 
r 1.035937201 _6_ MAC  --- 0 CTS 38 [474 6 0 0] 
s 1.035947201 _6_ MAC  --- 0 AODV 102 [13a 2 6 800] ------- [8:255 3:255 28 2] [0x4 3 [8 4] 10.000000] (REPLY)
r 1.036763899 _2_ MAC  --- 0 AODV 44 [13a 2 6 800] ------- [8:255 3:255 28 2] [0x4 3 [8 4] 10.000000] (REPLY)
s 1.036773899 _2_ MAC  --- 0 ACK 38 [0 6 0 0] 
r 1.036788899 _2_ RTR  --- 0 AODV 44 [13a 2 6 800] ------- [8:255 3:255 28 2] [0x4 3 [8 4] 10.000000] (REPLY)
f 1.036788899 _2_ RTR  --- 0 AODV 44 [13a 2 6 800] ------- [8:255 3:255 27 3] [0x4 4 [8 4] 10.000000] (REPLY)
r 1.037078598 _6_ MAC  --- 0 ACK 38 [0 6 0 0] 
s 1.037367899 _2_ MAC  --- 0 ARP 86 [0 ffffffff 2 806] ------- [REQUEST 2/2 0/3]
r 1.038056327 _0_ MAC  --- 0 ARP 28 [0 ffffffff 2 806] ------- [REQUEST 2/2 0/3]
r 1.038056358 _1_ MAC  --- 0 ARP 28 [0 ffffffff 2 806] ------- [REQUEST 2/2 0/3]
r 1.038056429 _3_ MAC  --- 0 ARP 28 [0 ffffffff 2 806] ------- [REQUEST 2/2 0/3]
r 1.038056598 _6_ MAC  --- 0 ARP 28 [0 ffffffff 2 806] ------- [REQUEST 2/2 0/3]
s 1.038151429 _3_ MAC  --- 0 RTS 44 [52e 2 3 0] 
r 1.038503959 _2_ MAC  --- 0 RTS 44 [52e 2 3 0] 
s 1.038513959 _2_ MAC  --- 0 CTS 38 [3f4 3 0 0] 
r 1.038818489 _3_ MAC  --- 0 CTS 38 [3f4 3 0 0] 
s 1.038828489 _3_ MAC  --- 0 ARP 86 [13a 2 3 806] ------- [REPLY 3/3 2/2]
r 1.039517019 _2_ MAC  --- 0 ARP 28 [13a 2 3 806] ------- [REPLY 3/3 2/2]
s 1.039527019 _2_ MAC  --- 0 ACK 38 [0 3 0 0] 
r 1.039831549 _3_ MAC  --- 0 ACK 38 [0 3 0 0] 
s 1.040141019 _2_ MAC  --- 0 RTS 44 [5ae 3 2 0] 
r 1.040493549 _3_ MAC  --- 0 RTS 44 [5ae 3 2 0] 
s 1.040503549 _3_ MAC  --- 0 CTS 38 [474 2 0 0] 
r 1.040808078 _2_ MAC  --- 0 CTS 38 [474 2 0 0] 
s 1.040818078 _2_ MAC  --- 0 AODV 102 [13a 3 2 800] ------- [8:255 3:255 27 3] [0x4 4 [8 4] 10.000000] (REPLY)
r 1.041634608 _3_ MAC  --- 0 AODV 44 [13a 3 2 800] ------- [8:255 3:255 27 3] [0x4 4 [8 4] 10.000000] (REPLY)
s 1.041644608 _3_ MAC  --- 0 ACK 38 [0 2 0 0] 
r 1.041659608 _3_ RTR  --- 0 AODV 44 [13a 3 2 800] ------- [8:255 3:255 27 3] [0x4 4 [8 4] 10.000000] (REPLY)
s 1.041659608 _3_ RTR  --- 0 tcp 40 [0 0 0 0] ------- [3:0 8:0 30 2] [0 0] 0 0
r 1.041949138 _2_ MAC  --- 0 ACK 38 [0 2 0 0] 
s 1.042218608 _3_ MAC  --- 0 RTS 44 [58e 2 3 0] 
r 1.042571138 _2_ MAC  --- 0 RTS 44 [58e 2 3 0] 
s 1.042581138 _2_ MAC  --- 0 CTS 38 [454 3 0 0] 
r 1.042885668 _3_ MAC  --- 0 CTS 38 [454 3 0 0] 
s 1.042895668 _3_ MAC  --- 0 tcp 98 [13a 2 3 800] ------- [3:0 8:0 30 2] [0 0] 0 0
r 1.043680197 _2_ MAC  --- 0 tcp 40 [13a 2 3 800] ------- [3:0 8:0 30 2] [0 0] 1 0
s 1.043690197 _2_ MAC  --- 0 ACK 38 [0 3 0 0] 
r 1.043705197 _2_ RTR  --- 0 tcp 40 [13a 2 3 800] ------- [3:0 8:0 30 2] [0 0] 1 0
f 1.043705197 _2_ RTR  --- 0 tcp 40 [13a 2 3 800] ------- [3:0 8:0 29 6] [0 0] 1 0
r 1.043994727 _3_ MAC  --- 0 ACK 38 [0 3 0 0] 
s 1.044244197 _2_ MAC  --- 0 RTS 44 [58e 6 2 0] 
r 1.044596896 _6_ MAC  --- 0 RTS 44 [58e 6 2 0] 
s 1.044606896 _6_ MAC  --- 0 CTS 38 [454 2 0 0] 
r 1.044911595 _2_ MAC  --- 0 CTS 38 [454 2 0 0] 
s 1.044921595 _2_ MAC  --- 0 tcp 98 [13a 6 2 800] ------- [3:0 8:0 29 6] [0 0] 1 0
r 1.045706293 _6_ MAC  --- 0 tcp 40 [13a 6 2 800] ------- [3:0 8:0 29 6] [0 0] 2 0
s 1.045716293 _6_ MAC  --- 0 ACK 38 [0 2 0 0] 
r 1.045731293 _6_ RTR  --- 0 tcp 40 [13a 6 2 800] ------- [3:0 8:0 29 6] [0 0] 2 0
f 1.045731293 _6_ RTR  --- 0 tcp 40 [13a 6 2 800] ------- [3:0 8:0 28 7] [0 0] 2 0
r 1.046020992 _2_ MAC  --- 0 ACK 38 [0 2 0 0] 
s 1.046150293 _6_ MAC  --- 0 RTS 44 [58e 7 6 0] 
r 1.046502918 _7_ MAC  --- 0 RTS 44 [58e 7 6 0] 
s 1.046512918 _7_ MAC  --- 0 CTS 38 [454 6 0 0] 
r 1.046817543 _6_ MAC  --- 0 CTS 38 [454 6 0 0] 
s 1.046827543 _6_ MAC  --- 0 tcp 98 [13a 7 6 800] ------- [3:0 8:0 28 7] [0 0] 2 0