V -t * -v 1.0a5 -a 0
A -t * -n 1 -p 0 -o 0x7fffffff -c 30 -a 1
A -t * -h 1 -m 1073741823 -s 0
n -t * -a 17 -s 17 -S UP -v circle -c black -i black
n -t * -a 0 -s 0 -S UP -v circle -c black -i black
n -t * -a 18 -s 18 -S UP -v circle -c black -i black
n -t * -a 1 -s 1 -S UP -v circle -c black -i black
n -t * -a 20 -s 20 -S UP -v circle -c black -i black
n -t * -a 19 -s 19 -S UP -v circle -c black -i black
n -t * -a 2 -s 2 -S UP -v circle -c black -i black
n -t * -a 21 -s 21 -S UP -v circle -c black -i black
n -t * -a 3 -s 3 -S UP -v circle -c black -i black
n -t * -a 22 -s 22 -S UP -v circle -c black -i black
n -t * -a 4 -s 4 -S UP -v circle -c black -i black
n -t * -a 23 -s 23 -S UP -v circle -c black -i black
n -t * -a 5 -s 5 -S UP -v circle -c black -i black
n -t * -a 24 -s 24 -S UP -v circle -c black -i black
n -t * -a 6 -s 6 -S UP -v circle -c black -i black
n -t * -a 25 -s 25 -S UP -v circle -c black -i black
n -t * -a 7 -s 7 -S UP -v circle -c black -i black
n -t * -a 26 -s 26 -S UP -v circle -c black -i black
n -t * -a 8 -s 8 -S UP -v circle -c black -i black
n -t * -a 27 -s 27 -S UP -v circle -c black -i black
n -t * -a 9 -s 9 -S UP -v circle -c black -i black
n -t * -a 10 -s 10 -S UP -v circle -c black -i black
n -t * -a 28 -s 28 -S UP -v circle -c black -i black
n -t * -a 11 -s 11 -S UP -v circle -c black -i black
n -t * -a 30 -s 30 -S UP -v circle -c black -i black
n -t * -a 29 -s 29 -S UP -v circle -c black -i black
n -t * -a 12 -s 12 -S UP -v circle -c black -i black
n -t * -a 31 -s 31 -S UP -v circle -c black -i black
n -t * -a 13 -s 13 -S UP -v circle -c black -i black
n -t * -a 32 -s 32 -S UP -v circle -c black -i black
n -t * -a 14 -s 14 -S UP -v circle -c black -i black
n -t * -a 33 -s 33 -S UP -v circle -c black -i black
n -t * -a 15 -s 15 -S UP -v circle -c black -i black
n -t * -a 34 -s 34 -S UP -v circle -c black -i black
n -t * -a 16 -s 16 -S UP -v circle -c black -i black
l -t * -s 0 -d 1 -S UP -r 2000000 -D 0.014999999999999999 -c black
l -t * -s 1 -d 2 -S UP -r 2000000 -D 0.014999999999999999 -c black
l -t * -s 2 -d 3 -S UP -r 2000000 -D 0.014999999999999999 -c black
l -t * -s 3 -d 4 -S UP -r 2000000 -D 0.014999999999999999 -c black
l -t * -s 4 -d 5 -S UP -r 2000000 -D 0.014999999999999999 -c black
l -t * -s 5 -d 6 -S UP -r 2000000 -D 0.014999999999999999 -c black
l -t * -s 6 -d 0 -S UP -r 2000000 -D 0.014999999999999999 -c black
l -t * -s 0 -d 9 -S UP -r 2000000 -D 0.014999999999999999 -c black
l -t * -s 7 -d 8 -S UP -r 2000000 -D 0.014999999999999999 -c black
l -t * -s 8 -d 9 -S UP -r 2000000 -D 0.014999999999999999 -c black
l -t * -s 9 -d 10 -S UP -r 2000000 -D 0.014999999999999999 -c black
l -t * -s 10 -d 11 -S UP -r 2000000 -D 0.014999999999999999 -c black
l -t * -s 11 -d 12 -S UP -r 2000000 -D 0.014999999999999999 -c black
l -t * -s 12 -d 13 -S UP -r 2000000 -D 0.014999999999999999 -c black
l -t * -s 13 -d 7 -S UP -r 2000000 -D 0.014999999999999999 -c black
l -t * -s 7 -d 16 -S UP -r 2000000 -D 0.014999999999999999 -c black
l -t * -s 10 -d 29 -S UP -r 2000000 -D 0.014999999999999999 -c black
l -t * -s 14 -d 15 -S UP -r 2000000 -D 0.014999999999999999 -c black
l -t * -s 15 -d 16 -S UP -r 2000000 -D 0.014999999999999999 -c black
l -t * -s 16 -d 17 -S UP -r 2000000 -D 0.014999999999999999 -c black
l -t * -s 17 -d 18 -S UP -r 2000000 -D 0.014999999999999999 -c black
l -t * -s 18 -d 19 -S UP -r 2000000 -D 0.014999999999999999 -c black
l -t * -s 19 -d 20 -S UP -r 2000000 -D 0.014999999999999999 -c black
l -t * -s 20 -d 14 -S UP -r 2000000 -D 0.014999999999999999 -c black
l -t * -s 14 -d 23 -S UP -r 2000000 -D 0.014999999999999999 -c black
l -t * -s 21 -d 22 -S UP -r 2000000 -D 0.014999999999999999 -c black
l -t * -s 22 -d 23 -S UP -r 2000000 -D 0.014999999999999999 -c black
l -t * -s 23 -d 24 -S UP -r 2000000 -D 0.014999999999999999 -c black
l -t * -s 24 -d 25 -S UP -r 2000000 -D 0.014999999999999999 -c black
l -t * -s 25 -d 26 -S UP -r 2000000 -D 0.014999999999999999 -c black
l -t * -s 26 -d 27 -S UP -r 2000000 -D 0.014999999999999999 -c black
l -t * -s 27 -d 21 -S UP -r 2000000 -D 0.014999999999999999 -c black
l -t * -s 21 -d 30 -S UP -r 2000000 -D 0.014999999999999999 -c black
l -t * -s 24 -d 8 -S UP -r 2000000 -D 0.014999999999999999 -c black
l -t * -s 28 -d 29 -S UP -r 2000000 -D 0.014999999999999999 -c black
l -t * -s 29 -d 30 -S UP -r 2000000 -D 0.014999999999999999 -c black
l -t * -s 30 -d 31 -S UP -r 2000000 -D 0.014999999999999999 -c black
l -t * -s 31 -d 32 -S UP -r 2000000 -D 0.014999999999999999 -c black
l -t * -s 32 -d 33 -S UP -r 2000000 -D 0.014999999999999999 -c black
l -t * -s 33 -d 34 -S UP -r 2000000 -D 0.014999999999999999 -c black
l -t * -s 34 -d 28 -S UP -r 2000000 -D 0.014999999999999999 -c black
l -t * -s 28 -d 2 -S UP -r 2000000 -D 0.014999999999999999 -c black
v -t 0.2 -e sim_annotation 0.2 1 Node 5 is sending {1:first message}
+ -t 0.2 -s 5 -d 4 -p message -e 900 -c 0 -i 0 -a 0 -x {5.42 4.42 -1 ------- null}
- -t 0.2 -s 5 -d 4 -p message -e 900 -c 0 -i 0 -a 0 -x {5.42 4.42 -1 ------- null}
h -t 0.2 -s 5 -d 4 -p message -e 900 -c 0 -i 0 -a 0 -x {5.42 4.42 -1 ------- null}
+ -t 0.2 -s 5 -d 6 -p message -e 900 -c 0 -i 1 -a 0 -x {5.42 6.42 -1 ------- null}
- -t 0.2 -s 5 -d 6 -p message -e 900 -c 0 -i 1 -a 0 -x {5.42 6.42 -1 ------- null}
h -t 0.2 -s 5 -d 6 -p message -e 900 -c 0 -i 1 -a 0 -x {5.42 6.42 -1 ------- null}
r -t 0.2186 -s 5 -d 4 -p message -e 900 -c 0 -i 0 -a 0 -x {5.42 4.42 -1 ------- null}
v -t 0.2186 -e sim_annotation 0.2186 2 Node 4 received {1:first message}
+ -t 0.2186 -s 4 -d 3 -p message -e 900 -c 0 -i 2 -a 0 -x {4.42 3.42 -1 ------- null}
- -t 0.2186 -s 4 -d 3 -p message -e 900 -c 0 -i 2 -a 0 -x {4.42 3.42 -1 ------- null}
h -t 0.2186 -s 4 -d 3 -p message -e 900 -c 0 -i 2 -a 0 -x {4.42 3.42 -1 ------- null}
r -t 0.2186 -s 5 -d 6 -p message -e 900 -c 0 -i 1 -a 0 -x {5.42 6.42 -1 ------- null}
v -t 0.2186 -e sim_annotation 0.2186 3 Node 6 received {1:first message}
+ -t 0.2186 -s 6 -d 0 -p message -e 900 -c 0 -i 3 -a 0 -x {6.42 0.42 -1 ------- null}
- -t 0.2186 -s 6 -d 0 -p message -e 900 -c 0 -i 3 -a 0 -x {6.42 0.42 -1 ------- null}
h -t 0.2186 -s 6 -d 0 -p message -e 900 -c 0 -i 3 -a 0 -x {6.42 0.42 -1 ------- null}
r -t 0.2372 -s 4 -d 3 -p message -e 900 -c 0 -i 2 -a 0 -x {4.42 3.42 -1 ------- null}
v -t 0.2372 -e sim_annotation 0.2372 4 Node 3 received {1:first message}
+ -t 0.2372 -s 3 -d 2 -p message -e 900 -c 0 -i 4 -a 0 -x {3.42 2.42 -1 ------- null}
- -t 0.2372 -s 3 -d 2 -p message -e 900 -c 0 -i 4 -a 0 -x {3.42 2.42 -1 ------- null}
h -t 0.2372 -s 3 -d 2 -p message -e 900 -c 0 -i 4 -a 0 -x {3.42 2.42 -1 ------- null}
r -t 0.2372 -s 6 -d 0 -p message -e 900 -c 0 -i 3 -a 0 -x {6.42 0.42 -1 ------- null}
v -t 0.2372 -e sim_annotation 0.2372 5 Node 0 received {1:first message}
+ -t 0.2372 -s 0 -d 1 -p message -e 900 -c 0 -i 5 -a 0 -x {0.42 1.42 -1 ------- null}
- -t 0.2372 -s 0 -d 1 -p message -e 900 -c 0 -i 5 -a 0 -x {0.42 1.42 -1 ------- null}
h -t 0.2372 -s 0 -d 1 -p message -e 900 -c 0 -i 5 -a 0 -x {0.42 1.42 -1 ------- null}
+ -t 0.2372 -s 0 -d 9 -p message -e 900 -c 0 -i 6 -a 0 -x {0.42 9.42 -1 ------- null}
- -t 0.2372 -s 0 -d 9 -p message -e 900 -c 0 -i 6 -a 0 -x {0.42 9.42 -1 ------- null}
h -t 0.2372 -s 0 -d 9 -p message -e 900 -c 0 -i 6 -a 0 -x {0.42 9.42 -1 ------- null}
r -t 0.2558 -s 3 -d 2 -p message -e 900 -c 0 -i 4 -a 0 -x {3.42 2.42 -1 ------- null}
v -t 0.2558 -e sim_annotation 0.2558 6 Node 2 received {1:first message}
+ -t 0.2558 -s 2 -d 1 -p message -e 900 -c 0 -i 7 -a 0 -x {2.42 1.42 -1 ------- null}
- -t 0.2558 -s 2 -d 1 -p message -e 900 -c 0 -i 7 -a 0 -x {2.42 1.42 -1 ------- null}
h -t 0.2558 -s 2 -d 1 -p message -e 900 -c 0 -i 7 -a 0 -x {2.42 1.42 -1 ------- null}
+ -t 0.2558 -s 2 -d 28 -p message -e 900 -c 0 -i 8 -a 0 -x {2.42 28.42 -1 ------- null}
- -t 0.2558 -s 2 -d 28 -p message -e 900 -c 0 -i 8 -a 0 -x {2.42 28.42 -1 ------- null}
h -t 0.2558 -s 2 -d 28 -p message -e 900 -c 0 -i 8 -a 0 -x {2.42 28.42 -1 ------- null}
r -t 0.2558 -s 0 -d 1 -p message -e 900 -c 0 -i 5 -a 0 -x {0.42 1.42 -1 ------- null}
v -t 0.2558 -e sim_annotation 0.2558 7 Node 1 received {1:first message}
+ -t 0.2558 -s 1 -d 2 -p message -e 900 -c 0 -i 9 -a 0 -x {1.42 2.42 -1 ------- null}
- -t 0.2558 -s 1 -d 2 -p message -e 900 -c 0 -i 9 -a 0 -x {1.42 2.42 -1 ------- null}
h -t 0.2558 -s 1 -d 2 -p message -e 900 -c 0 -i 9 -a 0 -x {1.42 2.42 -1 ------- null}
r -t 0.2558 -s 0 -d 9 -p message -e 900 -c 0 -i 6 -a 0 -x {0.42 9.42 -1 ------- null}
v -t 0.2558 -e sim_annotation 0.2558 8 Node 9 received {1:first message}
+ -t 0.2558 -s 9 -d 8 -p message -e 900 -c 0 -i 10 -a 0 -x {9.42 8.42 -1 ------- null}
- -t 0.2558 -s 9 -d 8 -p message -e 900 -c 0 -i 10 -a 0 -x {9.42 8.42 -1 ------- null}
h -t 0.2558 -s 9 -d 8 -p message -e 900 -c 0 -i 10 -a 0 -x {9.42 8.42 -1 ------- null}
+ -t 0.2558 -s 9 -d 10 -p message -e 900 -c 0 -i 11 -a 0 -x {9.42 10.42 -1 ------- null}
- -t 0.2558 -s 9 -d 10 -p message -e 900 -c 0 -i 11 -a 0 -x {9.42 10.42 -1 ------- null}
h -t 0.2558 -s 9 -d 10 -p message -e 900 -c 0 -i 11 -a 0 -x {9.42 10.42 -1 ------- null}
r -t 0.2744 -s 2 -d 1 -p message -e 900 -c 0 -i 7 -a 0 -x {2.42 1.42 -1 ------- null}
v -t 0.2744 -e sim_annotation 0.2744 9 Node 1 received redundant copy of message #1
r -t 0.2744 -s 2 -d 28 -p message -e 900 -c 0 -i 8 -a 0 -x {2.42 28.42 -1 ------- null}
v -t 0.2744 -e sim_annotation 0.2744 10 Node 28 received {1:first message}
+ -t 0.2744 -s 28 -d 34 -p message -e 900 -c 0 -i 12 -a 0 -x {28.42 34.42 -1 ------- null}
- -t 0.2744 -s 28 -d 34 -p message -e 900 -c 0 -i 12 -a 0 -x {28.42 34.42 -1 ------- null}
h -t 0.2744 -s 28 -d 34 -p message -e 900 -c 0 -i 12 -a 0 -x {28.42 34.42 -1 ------- null}
+ -t 0.2744 -s 28 -d 29 -p message -e 900 -c 0 -i 13 -a 0 -x {28.42 29.42 -1 ------- null}
- -t 0.2744 -s 28 -d 29 -p message -e 900 -c 0 -i 13 -a 0 -x {28.42 29.42 -1 ------- null}
h -t 0.2744 -s 28 -d 29 -p message -e 900 -c 0 -i 13 -a 0 -x {28.42 29.42 -1 ------- null}
r -t 0.2744 -s 1 -d 2 -p message -e 900 -c 0 -i 9 -a 0 -x {1.42 2.42 -1 ------- null}
v -t 0.2744 -e sim_annotation 0.2744 11 Node 2 received redundant copy of message #1
r -t 0.2744 -s 9 -d 8 -p message -e 900 -c 0 -i 10 -a 0 -x {9.42 8.42 -1 ------- null}
v -t 0.2744 -e sim_annotation 0.2744 12 Node 8 received {1:first message}
+ -t 0.2744 -s 8 -d 7 -p message -e 900 -c 0 -i 14 -a 0 -x {8.42 7.42 -1 ------- null}
- -t 0.2744 -s 8 -d 7 -p message -e 900 -c 0 -i 14 -a 0 -x {8.42 7.42 -1 ------- null}
h -t 0.2744 -s 8 -d 7 -p message -e 900 -c 0 -i 14 -a 0 -x {8.42 7.42 -1 ------- null}
+ -t 0.2744 -s 8 -d 24 -p message -e 900 -c 0 -i 15 -a 0 -x {8.42 24.42 -1 ------- null}
- -t 0.2744 -s 8 -d 24 -p message -e 900 -c 0 -i 15 -a 0 -x {8.42 24.42 -1 ------- null}
h -t 0.2744 -s 8 -d 24 -p message -e 900 -c 0 -i 15 -a 0 -x {8.42 24.42 -1 ------- null}
r -t 0.2744 -s 9 -d 10 -p message -e 900 -c 0 -i 11 -a 0 -x {9.42 10.42 -1 ------- null}
v -t 0.2744 -e sim_annotation 0.2744 13 Node 10 received {1:first message}
+ -t 0.2744 -s 10 -d 11 -p message -e 900 -c 0 -i 16 -a 0 -x {10.42 11.42 -1 ------- null}
- -t 0.2744 -s 10 -d 11 -p message -e 900 -c 0 -i 16 -a 0 -x {10.42 11.42 -1 ------- null}
h -t 0.2744 -s 10 -d 11 -p message -e 900 -c 0 -i 16 -a 0 -x {10.42 11.42 -1 ------- null}
+ -t 0.2744 -s 10 -d 29 -p message -e 900 -c 0 -i 17 -a 0 -x {10.42 29.42 -1 ------- null}
- -t 0.2744 -s 10 -d 29 -p message -e 900 -c 0 -i 17 -a 0 -x {10.42 29.42 -1 ------- null}
h -t 0.2744 -s 10 -d 29 -p message -e 900 -c 0 -i 17 -a 0 -x {10.42 29.42 -1 ------- null}
r -t 0.293 -s 28 -d 34 -p message -e 900 -c 0 -i 12 -a 0 -x {28.42 34.42 -1 ------- null}
v -t 0.293 -e sim_annotation 0.293 14 Node 34 received {1:first message}
+ -t 0.293 -s 34 -d 33 -p message -e 900 -c 0 -i 18 -a 0 -x {34.42 33.42 -1 ------- null}
- -t 0.293 -s 34 -d 33 -p message -e 900 -c 0 -i 18 -a 0 -x {34.42 33.42 -1 ------- null}
h -t 0.293 -s 34 -d 33 -p message -e 900 -c 0 -i 18 -a 0 -x {34.42 33.42 -1 ------- null}
r -t 0.293 -s 28 -d 29 -p message -e 900 -c 0 -i 13 -a 0 -x {28.42 29.42 -1 ------- null}
v -t 0.293 -e sim_annotation 0.293 15 Node 29 received {1:first message}
+ -t 0.293 -s 29 -d 30 -p message -e 900 -c 0 -i 19 -a 0 -x {29.42 30.42 -1 ------- null}
- -t 0.293 -s 29 -d 30 -p message -e 900 -c 0 -i 19 -a 0 -x {29.42 30.42 -1 ------- null}
h -t 0.293 -s 29 -d 30 -p message -e 900 -c 0 -i 19 -a 0 -x {29.42 30.42 -1 ------- null}
+ -t 0.293 -s 29 -d 10 -p message -e 900 -c 0 -i 20 -a 0 -x {29.42 10.42 -1 ------- null}
- -t 0.293 -s 29 -d 10 -p message -e 900 -c 0 -i 20 -a 0 -x {29.42 10.42 -1 ------- null}
h -t 0.293 -s 29 -d 10 -p message -e 900 -c 0 -i 20 -a 0 -x {29.42 10.42 -1 ------- null}
r -t 0.293 -s 8 -d 7 -p message -e 900 -c 0 -i 14 -a 0 -x {8.42 7.42 -1 ------- null}
v -t 0.293 -e sim_annotation 0.293 16 Node 7 received {1:first message}
+ -t 0.293 -s 7 -d 13 -p message -e 900 -c 0 -i 21 -a 0 -x {7.42 13.42 -1 ------- null}
- -t 0.293 -s 7 -d 13 -p message -e 900 -c 0 -i 21 -a 0 -x {7.42 13.42 -1 ------- null}
h -t 0.293 -s 7 -d 13 -p message -e 900 -c 0 -i 21 -a 0 -x {7.42 13.42 -1 ------- null}
+ -t 0.293 -s 7 -d 16 -p message -e 900 -c 0 -i 22 -a 0 -x {7.42 16.42 -1 ------- null}
- -t 0.293 -s 7 -d 16 -p message -e 900 -c 0 -i 22 -a 0 -x {7.42 16.42 -1 ------- null}
h -t 0.293 -s 7 -d 16 -p message -e 900 -c 0 -i 22 -a 0 -x {7.42 16.42 -1 ------- null}
r -t 0.293 -s 8 -d 24 -p message -e 900 -c 0 -i 15 -a 0 -x {8.42 24.42 -1 ------- null}
v -t 0.293 -e sim_annotation 0.293 17 Node 24 received {1:first message}
+ -t 0.293 -s 24 -d 23 -p message -e 900 -c 0 -i 23 -a 0 -x {24.42 23.42 -1 ------- null}
- -t 0.293 -s 24 -d 23 -p message -e 900 -c 0 -i 23 -a 0 -x {24.42 23.42 -1 ------- null}
h -t 0.293 -s 24 -d 23 -p message -e 900 -c 0 -i 23 -a 0 -x {24.42 23.42 -1 ------- null}
+ -t 0.293 -s 24 -d 25 -p message -e 900 -c 0 -i 24 -a 0 -x {24.42 25.42 -1 ------- null}
- -t 0.293 -s 24 -d 25 -p message -e 900 -c 0 -i 24 -a 0 -x {24.42 25.42 -1 ------- null}
h -t 0.293 -s 24 -d 25 -p message -e 900 -c 0 -i 24 -a 0 -x {24.42 25.42 -1 ------- null}
r -t 0.293 -s 10 -d 11 -p message -e 900 -c 0 -i 16 -a 0 -x {10.42 11.42 -1 ------- null}
v -t 0.293 -e sim_annotation 0.293 18 Node 11 received {1:first message}
+ -t 0.293 -s 11 -d 12 -p message -e 900 -c 0 -i 25 -a 0 -x {11.42 12.42 -1 ------- null}
- -t 0.293 -s 11 -d 12 -p message -e 900 -c 0 -i 25 -a 0 -x {11.42 12.42 -1 ------- null}
h -t 0.293 -s 11 -d 12 -p message -e 900 -c 0 -i 25 -a 0 -x {11.42 12.42 -1 ------- null}
r -t 0.293 -s 10 -d 29 -p message -e 900 -c 0 -i 17 -a 0 -x {10.42 29.42 -1 ------- null}
v -t 0.293 -e sim_annotation 0.293 19 Node 29 received redundant copy of message #1
r -t 0.3116 -s 34 -d 33 -p message -e 900 -c 0 -i 18 -a 0 -x {34.42 33.42 -1 ------- null}
v -t 0.3116 -e sim_annotation 0.3116 20 Node 33 received {1:first message}
+ -t 0.3116 -s 33 -d 32 -p message -e 900 -c 0 -i 26 -a 0 -x {33.42 32.42 -1 ------- null}
- -t 0.3116 -s 33 -d 32 -p message -e 900 -c 0 -i 26 -a 0 -x {33.42 32.42 -1 ------- null}
h -t 0.3116 -s 33 -d 32 -p message -e 900 -c 0 -i 26 -a 0 -x {33.42 32.42 -1 ------- null}
r -t 0.3116 -s 29 -d 30 -p message -e 900 -c 0 -i 19 -a 0 -x {29.42 30.42 -1 ------- null}
v -t 0.3116 -e sim_annotation 0.3116 21 Node 30 received {1:first message}
+ -t 0.3116 -s 30 -d 31 -p message -e 900 -c 0 -i 27 -a 0 -x {30.42 31.42 -1 ------- null}
- -t 0.3116 -s 30 -d 31 -p message -e 900 -c 0 -i 27 -a 0 -x {30.42 31.42 -1 ------- null}
h -t 0.3116 -s 30 -d 31 -p message -e 900 -c 0 -i 27 -a 0 -x {30.42 31.42 -1 ------- null}
+ -t 0.3116 -s 30 -d 21 -p message -e 900 -c 0 -i 28 -a 0 -x {30.42 21.42 -1 ------- null}
- -t 0.3116 -s 30 -d 21 -p message -e 900 -c 0 -i 28 -a 0 -x {30.42 21.42 -1 ------- null}
h -t 0.3116 -s 30 -d 21 -p message -e 900 -c 0 -i 28 -a 0 -x {30.42 21.42 -1 ------- null}
r -t 0.3116 -s 29 -d 10 -p message -e 900 -c 0 -i 20 -a 0 -x {29.42 10.42 -1 ------- null}
v -t 0.3116 -e sim_annotation 0.3116 22 Node 10 received redundant copy of message #1
r -t 0.3116 -s 7 -d 13 -p message -e 900 -c 0 -i 21 -a 0 -x {7.42 13.42 -1 ------- null}
v -t 0.3116 -e sim_annotation 0.3116 23 Node 13 received {1:first message}
+ -t 0.3116 -s 13 -d 12 -p message -e 900 -c 0 -i 29 -a 0 -x {13.42 12.42 -1 ------- null}
- -t 0.3116 -s 13 -d 12 -p message -e 900 -c 0 -i 29 -a 0 -x {13.42 12.42 -1 ------- null}
h -t 0.3116 -s 13 -d 12 -p message -e 900 -c 0 -i 29 -a 0 -x {13.42 12.42 -1 ------- null}
r -t 0.3116 -s 7 -d 16 -p message -e 900 -c 0 -i 22 -a 0 -x {7.42 16.42 -1 ------- null}
v -t 0.3116 -e sim_annotation 0.3116 24 Node 16 received {1:first message}
+ -t 0.3116 -s 16 -d 15 -p message -e 900 -c 0 -i 30 -a 0 -x {16.42 15.42 -1 ------- null}
- -t 0.3116 -s 16 -d 15 -p message -e 900 -c 0 -i 30 -a 0 -x {16.42 15.42 -1 ------- null}
h -t 0.3116 -s 16 -d 15 -p message -e 900 -c 0 -i 30 -a 0 -x {16.42 15.42 -1 ------- null}
+ -t 0.3116 -s 16 -d 17 -p message -e 900 -c 0 -i 31 -a 0 -x {16.42 17.42 -1 ------- null}
- -t 0.3116 -s 16 -d 17 -p message -e 900 -c 0 -i 31 -a 0 -x {16.42 17.42 -1 ------- null}
h -t 0.3116 -s 16 -d 17 -p message -e 900 -c 0 -i 31 -a 0 -x {16.42 17.42 -1 ------- null}
r -t 0.3116 -s 24 -d 23 -p message -e 900 -c 0 -i 23 -a 0 -x {24.42 23.42 -1 ------- null}
v -t 0.3116 -e sim_annotation 0.3116 25 Node 23 received {1:first message}
+ -t 0.3116 -s 23 -d 14 -p message -e 900 -c 0 -i 32 -a 0 -x {23.42 14.42 -1 ------- null}
- -t 0.3116 -s 23 -d 14 -p message -e 900 -c 0 -i 32 -a 0 -x {23.42 14.42 -1 ------- null}
h -t 0.3116 -s 23 -d 14 -p message -e 900 -c 0 -i 32 -a 0 -x {23.42 14.42 -1 ------- null}
+ -t 0.3116 -s 23 -d 22 -p message -e 900 -c 0 -i 33 -a 0 -x {23.42 22.42 -1 ------- null}
- -t 0.3116 -s 23 -d 22 -p message -e 900 -c 0 -i 33 -a 0 -x {23.42 22.42 -1 ------- null}
h -t 0.3116 -s 23 -d 22 -p message -e 900 -c 0 -i 33 -a 0 -x {23.42 22.42 -1 ------- null}
r -t 0.3116 -s 24 -d 25 -p message -e 900 -c 0 -i 24 -a 0 -x {24.42 25.42 -1 ------- null}
v -t 0.3116 -e sim_annotation 0.3116 26 Node 25 received {1:first message}
+ -t 0.3116 -s 25 -d 26 -p message -e 900 -c 0 -i 34 -a 0 -x {25.42 26.42 -1 ------- null}
- -t 0.3116 -s 25 -d 26 -p message -e 900 -c 0 -i 34 -a 0 -x {25.42 26.42 -1 ------- null}
h -t 0.3116 -s 25 -d 26 -p message -e 900 -c 0 -i 34 -a 0 -x {25.42 26.42 -1 ------- null}
r -t 0.3116 -s 11 -d 12 -p message -e 900 -c 0 -i 25 -a 0 -x {11.42 12.42 -1 ------- null}
v -t 0.3116 -e sim_annotation 0.3116 27 Node 12 received {1:first message}
+ -t 0.3116 -s 12 -d 13 -p message -e 900 -c 0 -i 35 -a 0 -x {12.42 13.42 -1 ------- null}
- -t 0.3116 -s 12 -d 13 -p message -e 900 -c 0 -i 35 -a 0 -x {12.42 13.42 -1 ------- null}
h -t 0.3116 -s 12 -d 13 -p message -e 900 -c 0 -i 35 -a 0 -x {12.42 13.42 -1 ------- null}
r -t 0.3302 -s 33 -d 32 -p message -e 900 -c 0 -i 26 -a 0 -x {33.42 32.42 -1 ------- null}
v -t 0.3302 -e sim_annotation 0.3302 28 Node 32 received {1:first message}
+ -t 0.3302 -s 32 -d 31 -p message -e 900 -c 0 -i 36 -a 0 -x {32.42 31.42 -1 ------- null}
- -t 0.3302 -s 32 -d 31 -p message -e 900 -c 0 -i 36 -a 0 -x {32.42 31.42 -1 ------- null}
h -t 0.3302 -s 32 -d 31 -p message -e 900 -c 0 -i 36 -a 0 -x {32.42 31.42 -1 ------- null}
r -t 0.3302 -s 30 -d 31 -p message -e 900 -c 0 -i 27 -a 0 -x {30.42 31.42 -1 ------- null}
v -t 0.3302 -e sim_annotation 0.3302 29 Node 31 received {1:first message}
+ -t 0.3302 -s 31 -d 32 -p message -e 900 -c 0 -i 37 -a 0 -x {31.42 32.42 -1 ------- null}
- -t 0.3302 -s 31 -d 32 -p message -e 900 -c 0 -i 37 -a 0 -x {31.42 32.42 -1 ------- null}
h -t 0.3302 -s 31 -d 32 -p message -e 900 -c 0 -i 37 -a 0 -x {31.42 32.42 -1 ------- null}
r -t 0.3302 -s 30 -d 21 -p message -e 900 -c 0 -i 28 -a 0 -x {30.42 21.42 -1 ------- null}
v -t 0.3302 -e sim_annotation 0.3302 30 Node 21 received {1:first message}
+ -t 0.3302 -s 21 -d 22 -p message -e 900 -c 0 -i 38 -a 0 -x {21.42 22.42 -1 ------- null}
- -t 0.3302 -s 21 -d 22 -p message -e 900 -c 0 -i 38 -a 0 -x {21.42 22.42 -1 ------- null}
h -t 0.3302 -s 21 -d 22 -p message -e 900 -c 0 -i 38 -a 0 -x {21.42 22.42 -1 ------- null}
+ -t 0.3302 -s 21 -d 27 -p message -e 900 -c 0 -i 39 -a 0 -x {21.42 27.42 -1 ------- null}
- -t 0.3302 -s 21 -d 27 -p message -e 900 -c 0 -i 39 -a 0 -x {21.42 27.42 -1 ------- null}
h -t 0.3302 -s 21 -d 27 -p message -e 900 -c 0 -i 39 -a 0 -x {21.42 27.42 -1 ------- null}
r -t 0.3302 -s 13 -d 12 -p message -e 900 -c 0 -i 29 -a 0 -x {13.42 12.42 -1 ------- null}
v -t 0.3302 -e sim_annotation 0.3302 31 Node 12 received redundant copy of message #1
r -t 0.3302 -s 16 -d 15 -p message -e 900 -c 0 -i 30 -a 0 -x {16.42 15.42 -1 ------- null}
v -t 0.3302 -e sim_annotation 0.3302 32 Node 15 received {1:first message}
+ -t 0.3302 -s 15 -d 14 -p message -e 900 -c 0 -i 40 -a 0 -x {15.42 14.42 -1 ------- null}
- -t 0.3302 -s 15 -d 14 -p message -e 900 -c 0 -i 40 -a 0 -x {15.42 14.42 -1 ------- null}
h -t 0.3302 -s 15 -d 14 -p message -e 900 -c 0 -i 40 -a 0 -x {15.42 14.42 -1 ------- null}
r -t 0.3302 -s 16 -d 17 -p message -e 900 -c 0 -i 31 -a 0 -x {16.42 17.42 -1 ------- null}
v -t 0.3302 -e sim_annotation 0.3302 33 Node 17 received {1:first message}
+ -t 0.3302 -s 17 -d 18 -p message -e 900 -c 0 -i 41 -a 0 -x {17.42 18.42 -1 ------- null}
- -t 0.3302 -s 17 -d 18 -p message -e 900 -c 0 -i 41 -a 0 -x {17.42 18.42 -1 ------- null}
h -t 0.3302 -s 17 -d 18 -p message -e 900 -c 0 -i 41 -a 0 -x {17.42 18.42 -1 ------- null}
r -t 0.3302 -s 23 -d 14 -p message -e 900 -c 0 -i 32 -a 0 -x {23.42 14.42 -1 ------- null}
v -t 0.3302 -e sim_annotation 0.3302 34 Node 14 received {1:first message}
+ -t 0.3302 -s 14 -d 15 -p message -e 900 -c 0 -i 42 -a 0 -x {14.42 15.42 -1 ------- null}
- -t 0.3302 -s 14 -d 15 -p message -e 900 -c 0 -i 42 -a 0 -x {14.42 15.42 -1 ------- null}
h -t 0.3302 -s 14 -d 15 -p message -e 900 -c 0 -i 42 -a 0 -x {14.42 15.42 -1 ------- null}
+ -t 0.3302 -s 14 -d 20 -p message -e 900 -c 0 -i 43 -a 0 -x {14.42 20.42 -1 ------- null}
- -t 0.3302 -s 14 -d 20 -p message -e 900 -c 0 -i 43 -a 0 -x {14.42 20.42 -1 ------- null}
h -t 0.3302 -s 14 -d 20 -p message -e 900 -c 0 -i 43 -a 0 -x {14.42 20.42 -1 ------- null}
r -t 0.3302 -s 23 -d 22 -p message -e 900 -c 0 -i 33 -a 0 -x {23.42 22.42 -1 ------- null}
v -t 0.3302 -e sim_annotation 0.3302 35 Node 22 received {1:first message}
+ -t 0.3302 -s 22 -d 21 -p message -e 900 -c 0 -i 44 -a 0 -x {22.42 21.42 -1 ------- null}
- -t 0.3302 -s 22 -d 21 -p message -e 900 -c 0 -i 44 -a 0 -x {22.42 21.42 -1 ------- null}
h -t 0.3302 -s 22 -d 21 -p message -e 900 -c 0 -i 44 -a 0 -x {22.42 21.42 -1 ------- null}
r -t 0.3302 -s 25 -d 26 -p message -e 900 -c 0 -i 34 -a 0 -x {25.42 26.42 -1 ------- null}
v -t 0.3302 -e sim_annotation 0.3302 36 Node 26 received {1:first message}
+ -t 0.3302 -s 26 -d 27 -p message -e 900 -c 0 -i 45 -a 0 -x {26.42 27.42 -1 ------- null}
- -t 0.3302 -s 26 -d 27 -p message -e 900 -c 0 -i 45 -a 0 -x {26.42 27.42 -1 ------- null}
h -t 0.3302 -s 26 -d 27 -p message -e 900 -c 0 -i 45 -a 0 -x {26.42 27.42 -1 ------- null}
r -t 0.3302 -s 12 -d 13 -p message -e 900 -c 0 -i 35 -a 0 -x {12.42 13.42 -1 ------- null}
v -t 0.3302 -e sim_annotation 0.3302 37 Node 13 received redundant copy of message #1
r -t 0.3488 -s 32 -d 31 -p message -e 900 -c 0 -i 36 -a 0 -x {32.42 31.42 -1 ------- null}
v -t 0.3488 -e sim_annotation 0.3488 38 Node 31 received redundant copy of message #1
r -t 0.3488 -s 31 -d 32 -p message -e 900 -c 0 -i 37 -a 0 -x {31.42 32.42 -1 ------- null}
v -t 0.3488 -e sim_annotation 0.3488 39 Node 32 received redundant copy of message #1
r -t 0.3488 -s 21 -d 22 -p message -e 900 -c 0 -i 38 -a 0 -x {21.42 22.42 -1 ------- null}
v -t 0.3488 -e sim_annotation 0.3488 40 Node 22 received redundant copy of message #1
r -t 0.3488 -s 21 -d 27 -p message -e 900 -c 0 -i 39 -a 0 -x {21.42 27.42 -1 ------- null}
v -t 0.3488 -e sim_annotation 0.3488 41 Node 27 received {1:first message}
+ -t 0.3488 -s 27 -d 26 -p message -e 900 -c 0 -i 46 -a 0 -x {27.42 26.42 -1 ------- null}
- -t 0.3488 -s 27 -d 26 -p message -e 900 -c 0 -i 46 -a 0 -x {27.42 26.42 -1 ------- null}
h -t 0.3488 -s 27 -d 26 -p message -e 900 -c 0 -i 46 -a 0 -x {27.42 26.42 -1 ------- null}
r -t 0.3488 -s 15 -d 14 -p message -e 900 -c 0 -i 40 -a 0 -x {15.42 14.42 -1 ------- null}
v -t 0.3488 -e sim_annotation 0.3488 42 Node 14 received redundant copy of message #1
r -t 0.3488 -s 17 -d 18 -p message -e 900 -c 0 -i 41 -a 0 -x {17.42 18.42 -1 ------- null}
v -t 0.3488 -e sim_annotation 0.3488 43 Node 18 received {1:first message}
+ -t 0.3488 -s 18 -d 19 -p message -e 900 -c 0 -i 47 -a 0 -x {18.42 19.42 -1 ------- null}
- -t 0.3488 -s 18 -d 19 -p message -e 900 -c 0 -i 47 -a 0 -x {18.42 19.42 -1 ------- null}
h -t 0.3488 -s 18 -d 19 -p message -e 900 -c 0 -i 47 -a 0 -x {18.42 19.42 -1 ------- null}
r -t 0.3488 -s 14 -d 15 -p message -e 900 -c 0 -i 42 -a 0 -x {14.42 15.42 -1 ------- null}
v -t 0.3488 -e sim_annotation 0.3488 44 Node 15 received redundant copy of message #1
r -t 0.3488 -s 14 -d 20 -p message -e 900 -c 0 -i 43 -a 0 -x {14.42 20.42 -1 ------- null}
v -t 0.3488 -e sim_annotation 0.3488 45 Node 20 received {1:first message}
+ -t 0.3488 -s 20 -d 19 -p message -e 900 -c 0 -i 48 -a 0 -x {20.42 19.42 -1 ------- null}
- -t 0.3488 -s 20 -d 19 -p message -e 900 -c 0 -i 48 -a 0 -x {20.42 19.42 -1 ------- null}
h -t 0.3488 -s 20 -d 19 -p message -e 900 -c 0 -i 48 -a 0 -x {20.42 19.42 -1 ------- null}
r -t 0.3488 -s 22 -d 21 -p message -e 900 -c 0 -i 44 -a 0 -x {22.42 21.42 -1 ------- null}
v -t 0.3488 -e sim_annotation 0.3488 46 Node 21 received redundant copy of message #1
r -t 0.3488 -s 26 -d 27 -p message -e 900 -c 0 -i 45 -a 0 -x {26.42 27.42 -1 ------- null}
v -t 0.3488 -e sim_annotation 0.3488 47 Node 27 received redundant copy of message #1
r -t 0.3674 -s 27 -d 26 -p message -e 900 -c 0 -i 46 -a 0 -x {27.42 26.42 -1 ------- null}
v -t 0.3674 -e sim_annotation 0.3674 48 Node 26 received redundant copy of message #1
r -t 0.3674 -s 18 -d 19 -p message -e 900 -c 0 -i 47 -a 0 -x {18.42 19.42 -1 ------- null}
v -t 0.3674 -e sim_annotation 0.3674 49 Node 19 received {1:first message}
+ -t 0.3674 -s 19 -d 20 -p message -e 900 -c 0 -i 49 -a 0 -x {19.42 20.42 -1 ------- null}
- -t 0.3674 -s 19 -d 20 -p message -e 900 -c 0 -i 49 -a 0 -x {19.42 20.42 -1 ------- null}
h -t 0.3674 -s 19 -d 20 -p message -e 900 -c 0 -i 49 -a 0 -x {19.42 20.42 -1 ------- null}
r -t 0.3674 -s 20 -d 19 -p message -e 900 -c 0 -i 48 -a 0 -x {20.42 19.42 -1 ------- null}
v -t 0.3674 -e sim_annotation 0.3674 50 Node 19 received redundant copy of message #1
r -t 0.386 -s 19 -d 20 -p message -e 900 -c 0 -i 49 -a 0 -x {19.42 20.42 -1 ------- null}
v -t 0.386 -e sim_annotation 0.386 51 Node 20 received redundant copy of message #1
v -t 0.5 -e sim_annotation 0.5 52 Node 17 is sending {2:another one}
+ -t 0.5 -s 17 -d 16 -p message -e 700 -c 0 -i 50 -a 0 -x {17.42 16.42 -1 ------- null}
- -t 0.5 -s 17 -d 16 -p message -e 700 -c 0 -i 50 -a 0 -x {17.42 16.42 -1 ------- null}
h -t 0.5 -s 17 -d 16 -p message -e 700 -c 0 -i 50 -a 0 -x {17.42 16.42 -1 ------- null}
+ -t 0.5 -s 17 -d 18 -p message -e 700 -c 0 -i 51 -a 0 -x {17.42 18.42 -1 ------- null}
- -t 0.5 -s 17 -d 18 -p message -e 700 -c 0 -i 51 -a 0 -x {17.42 18.42 -1 ------- null}
h -t 0.5 -s 17 -d 18 -p message -e 700 -c 0 -i 51 -a 0 -x {17.42 18.42 -1 ------- null}
r -t 0.5178 -s 17 -d 16 -p message -e 700 -c 0 -i 50 -a 0 -x {17.42 16.42 -1 ------- null}
v -t 0.5178 -e sim_annotation 0.5178 53 Node 16 received {2:another one}
+ -t 0.5178 -s 16 -d 7 -p message -e 700 -c 0 -i 52 -a 0 -x {16.42 7.42 -1 ------- null}
- -t 0.5178 -s 16 -d 7 -p message -e 700 -c 0 -i 52 -a 0 -x {16.42 7.42 -1 ------- null}
h -t 0.5178 -s 16 -d 7 -p message -e 700 -c 0 -i 52 -a 0 -x {16.42 7.42 -1 ------- null}
+ -t 0.5178 -s 16 -d 15 -p message -e 700 -c 0 -i 53 -a 0 -x {16.42 15.42 -1 ------- null}
- -t 0.5178 -s 16 -d 15 -p message -e 700 -c 0 -i 53 -a 0 -x {16.42 15.42 -1 ------- null}
h -t 0.5178 -s 16 -d 15 -p message -e 700 -c 0 -i 53 -a 0 -x {16.42 15.42 -1 ------- null}
r -t 0.5178 -s 17 -d 18 -p message -e 700 -c 0 -i 51 -a 0 -x {17.42 18.42 -1 ------- null}
v -t 0.5178 -e sim_annotation 0.5178 54 Node 18 received {2:another one}
+ -t 0.5178 -s 18 -d 19 -p message -e 700 -c 0 -i 54 -a 0 -x {18.42 19.42 -1 ------- null}
- -t 0.5178 -s 18 -d 19 -p message -e 700 -c 0 -i 54 -a 0 -x {18.42 19.42 -1 ------- null}
h -t 0.5178 -s 18 -d 19 -p message -e 700 -c 0 -i 54 -a 0 -x {18.42 19.42 -1 ------- null}
r -t 0.5356 -s 16 -d 7 -p message -e 700 -c 0 -i 52 -a 0 -x {16.42 7.42 -1 ------- null}
v -t 0.5356 -e sim_annotation 0.5356 55 Node 7 received {2:another one}
+ -t 0.5356 -s 7 -d 8 -p message -e 700 -c 0 -i 55 -a 0 -x {7.42 8.42 -1 ------- null}
- -t 0.5356 -s 7 -d 8 -p message -e 700 -c 0 -i 55 -a 0 -x {7.42 8.42 -1 ------- null}
h -t 0.5356 -s 7 -d 8 -p message -e 700 -c 0 -i 55 -a 0 -x {7.42 8.42 -1 ------- null}
+ -t 0.5356 -s 7 -d 13 -p message -e 700 -c 0 -i 56 -a 0 -x {7.42 13.42 -1 ------- null}
- -t 0.5356 -s 7 -d 13 -p message -e 700 -c 0 -i 56 -a 0 -x {7.42 13.42 -1 ------- null}
h -t 0.5356 -s 7 -d 13 -p message -e 700 -c 0 -i 56 -a 0 -x {7.42 13.42 -1 ------- null}
r -t 0.5356 -s 16 -d 15 -p message -e 700 -c 0 -i 53 -a 0 -x {16.42 15.42 -1 ------- null}
v -t 0.5356 -e sim_annotation 0.5356 56 Node 15 received {2:another one}
+ -t 0.5356 -s 15 -d 14 -p message -e 700 -c 0 -i 57 -a 0 -x {15.42 14.42 -1 ------- null}
- -t 0.5356 -s 15 -d 14 -p message -e 700 -c 0 -i 57 -a 0 -x {15.42 14.42 -1 ------- null}
h -t 0.5356 -s 15 -d 14 -p message -e 700 -c 0 -i 57 -a 0 -x {15.42 14.42 -1 ------- null}
r -t 0.5356 -s 18 -d 19 -p message -e 700 -c 0 -i 54 -a 0 -x {18.42 19.42 -1 ------- null}
v -t 0.5356 -e sim_annotation 0.5356 57 Node 19 received {2:another one}
+ -t 0.5356 -s 19 -d 20 -p message -e 700 -c 0 -i 58 -a 0 -x {19.42 20.42 -1 ------- null}
- -t 0.5356 -s 19 -d 20 -p message -e 700 -c 0 -i 58 -a 0 -x {19.42 20.42 -1 ------- null}
h -t 0.5356 -s 19 -d 20 -p message -e 700 -c 0 -i 58 -a 0 -x {19.42 20.42 -1 ------- null}