l -t 0 -s 3 -d 4 -S DLABEL -l "abced" -L ""
l -t 0 -s 4 -d 3 -S DLABEL -l "abced" -L ""
V -t * -v 1.0a5 -a 0
A -t * -n 1 -p 0 -o 0x7fffffff -c 30 -a 1
A -t * -h 1 -m 1073741823 -s 0
c -t * -i 4 -n brown
c -t * -i 0 -n red
c -t * -i 5 -n tan
c -t * -i 1 -n blue
c -t * -i 6 -n gold
c -t * -i 2 -n chocolate
c -t * -i 7 -n black
c -t * -i 3 -n red
n -t * -a 4 -s 4 -S UP -v circle -c tan -i tan
n -t * -a 0 -s 0 -S UP -v circle -c black -i black
n -t * -a 5 -s 5 -S UP -v circle -c red -i red
n -t * -a 1 -s 1 -S UP -v circle -c blue -i blue
n -t * -a 2 -s 2 -S UP -v circle -c chocolate -i chocolate
n -t * -a 3 -s 3 -S UP -v circle -c gold -i gold
l -t * -s 0 -d 1 -S UP -r 1500000 -D 0.01 -c black -o right
l -t * -s 1 -d 2 -S UP -r 1500000 -D 0.01 -c black -o right
l -t * -s 2 -d 3 -S UP -r 1500000 -D 0.01 -c black -o right
l -t * -s 3 -d 4 -S UP -r 1500000 -D 0.01 -c green -o 60deg
l -t * -s 3 -d 5 -S UP -r 1500000 -D 0.01 -c black -o 300deg
a -t 0 -s 5 -d 1073741824 -n srm(5)
f -t 0 -s 5 -d 1073741824 -n C2_ -a srm(5) -v  -T v
f -t 0 -s 5 -d 1073741824 -n C1_ -a srm(5) -v  -T v
a -t 0 -s 1 -d 1073741824 -n srm(1)
f -t 0 -s 1 -d 1073741824 -n C2_ -a srm(1) -v  -T v
f -t 0 -s 1 -d 1073741824 -n C1_ -a srm(1) -v  -T v
a -t 0 -s 2 -d 1073741824 -n srm(2)
f -t 0 -s 2 -d 1073741824 -n C2_ -a srm(2) -v  -T v
f -t 0 -s 2 -d 1073741824 -n C1_ -a srm(2) -v  -T v
a -t 0 -s 3 -d 1073741824 -n srm(3)
f -t 0 -s 3 -d 1073741824 -n C2_ -a srm(3) -v  -T v
f -t 0 -s 3 -d 1073741824 -n C1_ -a srm(3) -v  -T v
a -t 0 -s 4 -d 1073741824 -n srm(4)
f -t 0 -s 4 -d 1073741824 -n C2_ -a srm(4) -v  -T v
f -t 0 -s 4 -d 1073741824 -n C1_ -a srm(4) -v  -T v
a -t 0 -s 0 -d 1073741824 -n srm(0)
f -t 0 -s 0 -d 1073741824 -n C2_ -a srm(0) -v  -T v
f -t 0 -s 0 -d 1073741824 -n C1_ -a srm(0) -v  -T v
v -t 0 -e monitor_agent 0 srm(0)
v -t 0 -e monitor_agent 1 srm(1)
v -t 0 -e monitor_agent 2 srm(2)
v -t 0 -e monitor_agent 3 srm(3)
v -t 0 -e monitor_agent 4 srm(4)
v -t 0 -e monitor_agent 5 srm(5)
v -t 0 set_rate_ext 0.0001 1
+ -t 1.90006791539493 -s 0 -d 1 -p SRM -e 36 -c 1 -i 0 -a 1 -x {0.1 1073741824.0 -1 ------- SRM_SESS}
- -t 1.90006791539493 -s 0 -d 1 -p SRM -e 36 -c 1 -i 0 -a 1 -x {0.1 1073741824.0 -1 ------- SRM_SESS}
h -t 1.90006791539493 -s 0 -d 1 -p SRM -e 36 -c 1 -i 0 -a 1 -x {0.1 1073741824.0 -1 ------- SRM_SESS}
+ -t 1.90284093208743 -s 2 -d 1 -p SRM -e 36 -c 3 -i 1 -a 3 -x {2.1 1073741824.0 -1 ------- SRM_SESS}
- -t 1.90284093208743 -s 2 -d 1 -p SRM -e 36 -c 3 -i 1 -a 3 -x {2.1 1073741824.0 -1 ------- SRM_SESS}
h -t 1.90284093208743 -s 2 -d 1 -p SRM -e 36 -c 3 -i 1 -a 3 -x {2.1 1073741824.0 -1 ------- SRM_SESS}
+ -t 1.90284093208743 -s 2 -d 3 -p SRM -e 36 -c 3 -i 1 -a 3 -x {2.1 1073741824.0 -1 ------- SRM_SESS}
- -t 1.90284093208743 -s 2 -d 3 -p SRM -e 36 -c 3 -i 1 -a 3 -x {2.1 1073741824.0 -1 ------- SRM_SESS}
h -t 1.90284093208743 -s 2 -d 3 -p SRM -e 36 -c 3 -i 1 -a 3 -x {2.1 1073741824.0 -1 ------- SRM_SESS}
r -t 1.91025991539493 -s 0 -d 1 -p SRM -e 36 -c 1 -i 0 -a 1 -x {0.1 1073741824.0 -1 ------- SRM_SESS}
+ -t 1.91025991539493 -s 1 -d 2 -p SRM -e 36 -c 1 -i 0 -a 1 -x {0.1 1073741824.0 -1 ------- SRM_SESS}
- -t 1.91025991539493 -s 1 -d 2 -p SRM -e 36 -c 1 -i 0 -a 1 -x {0.1 1073741824.0 -1 ------- SRM_SESS}
h -t 1.91025991539493 -s 1 -d 2 -p SRM -e 36 -c 1 -i 0 -a 1 -x {0.1 1073741824.0 -1 ------- SRM_SESS}
r -t 1.91303293208743 -s 2 -d 1 -p SRM -e 36 -c 3 -i 1 -a 3 -x {2.1 1073741824.0 -1 ------- SRM_SESS}
+ -t 1.91303293208743 -s 1 -d 0 -p SRM -e 36 -c 3 -i 1 -a 3 -x {2.1 1073741824.0 -1 ------- SRM_SESS}
- -t 1.91303293208743 -s 1 -d 0 -p SRM -e 36 -c 3 -i 1 -a 3 -x {2.1 1073741824.0 -1 ------- SRM_SESS}
h -t 1.91303293208743 -s 1 -d 0 -p SRM -e 36 -c 3 -i 1 -a 3 -x {2.1 1073741824.0 -1 ------- SRM_SESS}
r -t 1.91303293208743 -s 2 -d 3 -p SRM -e 36 -c 3 -i 1 -a 3 -x {2.1 1073741824.0 -1 ------- SRM_SESS}
+ -t 1.91303293208743 -s 3 -d 4 -p SRM -e 36 -c 3 -i 1 -a 3 -x {2.1 1073741824.0 -1 ------- SRM_SESS}
- -t 1.91303293208743 -s 3 -d 4 -p SRM -e 36 -c 3 -i 1 -a 3 -x {2.1 1073741824.0 -1 ------- SRM_SESS}
h -t 1.91303293208743 -s 3 -d 4 -p SRM -e 36 -c 3 -i 1 -a 3 -x {2.1 1073741824.0 -1 ------- SRM_SESS}
+ -t 1.91303293208743 -s 3 -d 5 -p SRM -e 36 -c 3 -i 1 -a 3 -x {2.1 1073741824.0 -1 ------- SRM_SESS}
- -t 1.91303293208743 -s 3 -d 5 -p SRM -e 36 -c 3 -i 1 -a 3 -x {2.1 1073741824.0 -1 ------- SRM_SESS}
h -t 1.91303293208743 -s 3 -d 5 -p SRM -e 36 -c 3 -i 1 -a 3 -x {2.1 1073741824.0 -1 ------- SRM_SESS}
+ -t 1.91762453420908 -s 3 -d 2 -p SRM -e 52 -c 4 -i 2 -a 4 -x {3.1 1073741824.0 -1 ------- SRM_SESS}
- -t 1.91762453420908 -s 3 -d 2 -p SRM -e 52 -c 4 -i 2 -a 4 -x {3.1 1073741824.0 -1 ------- SRM_SESS}
h -t 1.91762453420908 -s 3 -d 2 -p SRM -e 52 -c 4 -i 2 -a 4 -x {3.1 1073741824.0 -1 ------- SRM_SESS}
+ -t 1.91762453420908 -s 3 -d 4 -p SRM -e 52 -c 4 -i 2 -a 4 -x {3.1 1073741824.0 -1 ------- SRM_SESS}
- -t 1.91762453420908 -s 3 -d 4 -p SRM -e 52 -c 4 -i 2 -a 4 -x {3.1 1073741824.0 -1 ------- SRM_SESS}
h -t 1.91762453420908 -s 3 -d 4 -p SRM -e 52 -c 4 -i 2 -a 4 -x {3.1 1073741824.0 -1 ------- SRM_SESS}
+ -t 1.91762453420908 -s 3 -d 5 -p SRM -e 52 -c 4 -i 2 -a 4 -x {3.1 1073741824.0 -1 ------- SRM_SESS}
- -t 1.91762453420908 -s 3 -d 5 -p SRM -e 52 -c 4 -i 2 -a 4 -x {3.1 1073741824.0 -1 ------- SRM_SESS}
h -t 1.91762453420908 -s 3 -d 5 -p SRM -e 52 -c 4 -i 2 -a 4 -x {3.1 1073741824.0 -1 ------- SRM_SESS}
r -t 1.92045191539493 -s 1 -d 2 -p SRM -e 36 -c 1 -i 0 -a 1 -x {0.1 1073741824.0 -1 ------- SRM_SESS}
+ -t 1.92045191539493 -s 2 -d 3 -p SRM -e 36 -c 1 -i 0 -a 1 -x {0.1 1073741824.0 -1 ------- SRM_SESS}
- -t 1.92045191539493 -s 2 -d 3 -p SRM -e 36 -c 1 -i 0 -a 1 -x {0.1 1073741824.0 -1 ------- SRM_SESS}
h -t 1.92045191539493 -s 2 -d 3 -p SRM -e 36 -c 1 -i 0 -a 1 -x {0.1 1073741824.0 -1 ------- SRM_SESS}
r -t 1.92322493208743 -s 1 -d 0 -p SRM -e 36 -c 3 -i 1 -a 3 -x {2.1 1073741824.0 -1 ------- SRM_SESS}
r -t 1.92322493208743 -s 3 -d 4 -p SRM -e 36 -c 3 -i 1 -a 3 -x {2.1 1073741824.0 -1 ------- SRM_SESS}
r -t 1.92322493208743 -s 3 -d 5 -p SRM -e 36 -c 3 -i 1 -a 3 -x {2.1 1073741824.0 -1 ------- SRM_SESS}
r -t 1.92790186754242 -s 3 -d 2 -p SRM -e 52 -c 4 -i 2 -a 4 -x {3.1 1073741824.0 -1 ------- SRM_SESS}
+ -t 1.92790186754242 -s 2 -d 1 -p SRM -e 52 -c 4 -i 2 -a 4 -x {3.1 1073741824.0 -1 ------- SRM_SESS}
- -t 1.92790186754242 -s 2 -d 1 -p SRM -e 52 -c 4 -i 2 -a 4 -x {3.1 1073741824.0 -1 ------- SRM_SESS}
h -t 1.92790186754242 -s 2 -d 1 -p SRM -e 52 -c 4 -i 2 -a 4 -x {3.1 1073741824.0 -1 ------- SRM_SESS}
r -t 1.92790186754242 -s 3 -d 4 -p SRM -e 52 -c 4 -i 2 -a 4 -x {3.1 1073741824.0 -1 ------- SRM_SESS}
r -t 1.92790186754242 -s 3 -d 5 -p SRM -e 52 -c 4 -i 2 -a 4 -x {3.1 1073741824.0 -1 ------- SRM_SESS}
r -t 1.93064391539493 -s 2 -d 3 -p SRM -e 36 -c 1 -i 0 -a 1 -x {0.1 1073741824.0 -1 ------- SRM_SESS}
+ -t 1.93064391539493 -s 3 -d 4 -p SRM -e 36 -c 1 -i 0 -a 1 -x {0.1 1073741824.0 -1 ------- SRM_SESS}
- -t 1.93064391539493 -s 3 -d 4 -p SRM -e 36 -c 1 -i 0 -a 1 -x {0.1 1073741824.0 -1 ------- SRM_SESS}
h -t 1.93064391539493 -s 3 -d 4 -p SRM -e 36 -c 1 -i 0 -a 1 -x {0.1 1073741824.0 -1 ------- SRM_SESS}
+ -t 1.93064391539493 -s 3 -d 5 -p SRM -e 36 -c 1 -i 0 -a 1 -x {0.1 1073741824.0 -1 ------- SRM_SESS}
- -t 1.93064391539493 -s 3 -d 5 -p SRM -e 36 -c 1 -i 0 -a 1 -x {0.1 1073741824.0 -1 ------- SRM_SESS}
h -t 1.93064391539493 -s 3 -d 5 -p SRM -e 36 -c 1 -i 0 -a 1 -x {0.1 1073741824.0 -1 ------- SRM_SESS}
r -t 1.93817920087575 -s 2 -d 1 -p SRM -e 52 -c 4 -i 2 -a 4 -x {3.1 1073741824.0 -1 ------- SRM_SESS}
+ -t 1.93817920087575 -s 1 -d 0 -p SRM -e 52 -c 4 -i 2 -a 4 -x {3.1 1073741824.0 -1 ------- SRM_SESS}
- -t 1.93817920087575 -s 1 -d 0 -p SRM -e 52 -c 4 -i 2 -a 4 -x {3.1 1073741824.0 -1 ------- SRM_SESS}
h -t 1.93817920087575 -s 1 -d 0 -p SRM -e 52 -c 4 -i 2 -a 4 -x {3.1 1073741824.0 -1 ------- SRM_SESS}
r -t 1.94083591539493 -s 3 -d 4 -p SRM -e 36 -c 1 -i 0 -a 1 -x {0.1 1073741824.0 -1 ------- SRM_SESS}
r -t 1.94083591539493 -s 3 -d 5 -p SRM -e 36 -c 1 -i 0 -a 1 -x {0.1 1073741824.0 -1 ------- SRM_SESS}
r -t 1.94845653420908 -s 1 -d 0 -p SRM -e 52 -c 4 -i 2 -a 4 -x {3.1 1073741824.0 -1 ------- SRM_SESS}
+ -t 1.98823467636864 -s 4 -d 3 -p SRM -e 84 -c 5 -i 3 -a 5 -x {4.1 1073741824.0 -1 ------- SRM_SESS}
- -t 1.98823467636864 -s 4 -d 3 -p SRM -e 84 -c 5 -i 3 -a 5 -x {4.1 1073741824.0 -1 ------- SRM_SESS}
h -t 1.98823467636864 -s 4 -d 3 -p SRM -e 84 -c 5 -i 3 -a 5 -x {4.1 1073741824.0 -1 ------- SRM_SESS}
r -t 1.99868267636864 -s 4 -d 3 -p SRM -e 84 -c 5 -i 3 -a 5 -x {4.1 1073741824.0 -1 ------- SRM_SESS}
+ -t 1.99868267636864 -s 3 -d 2 -p SRM -e 84 -c 5 -i 3 -a 5 -x {4.1 1073741824.0 -1 ------- SRM_SESS}
- -t 1.99868267636864 -s 3 -d 2 -p SRM -e 84 -c 5 -i 3 -a 5 -x {4.1 1073741824.0 -1 ------- SRM_SESS}
h -t 1.99868267636864 -s 3 -d 2 -p SRM -e 84 -c 5 -i 3 -a 5 -x {4.1 1073741824.0 -1 ------- SRM_SESS}
+ -t 1.99868267636864 -s 3 -d 5 -p SRM -e 84 -c 5 -i 3 -a 5 -x {4.1 1073741824.0 -1 ------- SRM_SESS}
- -t 1.99868267636864 -s 3 -d 5 -p SRM -e 84 -c 5 -i 3 -a 5 -x {4.1 1073741824.0 -1 ------- SRM_SESS}
h -t 1.99868267636864 -s 3 -d 5 -p SRM -e 84 -c 5 -i 3 -a 5 -x {4.1 1073741824.0 -1 ------- SRM_SESS}
r -t 2.00913067636864 -s 3 -d 2 -p SRM -e 84 -c 5 -i 3 -a 5 -x {4.1 1073741824.0 -1 ------- SRM_SESS}
+ -t 2.00913067636864 -s 2 -d 1 -p SRM -e 84 -c 5 -i 3 -a 5 -x {4.1 1073741824.0 -1 ------- SRM_SESS}
- -t 2.00913067636864 -s 2 -d 1 -p SRM -e 84 -c 5 -i 3 -a 5 -x {4.1 1073741824.0 -1 ------- SRM_SESS}
h -t 2.00913067636864 -s 2 -d 1 -p SRM -e 84 -c 5 -i 3 -a 5 -x {4.1 1073741824.0 -1 ------- SRM_SESS}
r -t 2.00913067636864 -s 3 -d 5 -p SRM -e 84 -c 5 -i 3 -a 5 -x {4.1 1073741824.0 -1 ------- SRM_SESS}
+ -t 2.01117614317274 -s 1 -d 0 -p SRM -e 84 -c 2 -i 4 -a 2 -x {1.1 1073741824.0 -1 ------- SRM_SESS}
- -t 2.01117614317274 -s 1 -d 0 -p SRM -e 84 -c 2 -i 4 -a 2 -x {1.1 1073741824.0 -1 ------- SRM_SESS}
h -t 2.01117614317274 -s 1 -d 0 -p SRM -e 84 -c 2 -i 4 -a 2 -x {1.1 1073741824.0 -1 ------- SRM_SESS}
+ -t 2.01117614317274 -s 1 -d 2 -p SRM -e 84 -c 2 -i 4 -a 2 -x {1.1 1073741824.0 -1 ------- SRM_SESS}
- -t 2.01117614317274 -s 1 -d 2 -p SRM -e 84 -c 2 -i 4 -a 2 -x {1.1 1073741824.0 -1 ------- SRM_SESS}
h -t 2.01117614317274 -s 1 -d 2 -p SRM -e 84 -c 2 -i 4 -a 2 -x {1.1 1073741824.0 -1 ------- SRM_SESS}
r -t 2.01957867636864 -s 2 -d 1 -p SRM -e 84 -c 5 -i 3 -a 5 -x {4.1 1073741824.0 -1 ------- SRM_SESS}
+ -t 2.01957867636864 -s 1 -d 0 -p SRM -e 84 -c 5 -i 3 -a 5 -x {4.1 1073741824.0 -1 ------- SRM_SESS}
- -t 2.01957867636864 -s 1 -d 0 -p SRM -e 84 -c 5 -i 3 -a 5 -x {4.1 1073741824.0 -1 ------- SRM_SESS}
h -t 2.01957867636864 -s 1 -d 0 -p SRM -e 84 -c 5 -i 3 -a 5 -x {4.1 1073741824.0 -1 ------- SRM_SESS}
r -t 2.02162414317274 -s 1 -d 0 -p SRM -e 84 -c 2 -i 4 -a 2 -x {1.1 1073741824.0 -1 ------- SRM_SESS}
r -t 2.02162414317274 -s 1 -d 2 -p SRM -e 84 -c 2 -i 4 -a 2 -x {1.1 1073741824.0 -1 ------- SRM_SESS}
+ -t 2.02162414317274 -s 2 -d 3 -p SRM -e 84 -c 2 -i 4 -a 2 -x {1.1 1073741824.0 -1 ------- SRM_SESS}
- -t 2.02162414317274 -s 2 -d 3 -p SRM -e 84 -c 2 -i 4 -a 2 -x {1.1 1073741824.0 -1 ------- SRM_SESS}
h -t 2.02162414317274 -s 2 -d 3 -p SRM -e 84 -c 2 -i 4 -a 2 -x {1.1 1073741824.0 -1 ------- SRM_SESS}
r -t 2.03002667636864 -s 1 -d 0 -p SRM -e 84 -c 5 -i 3 -a 5 -x {4.1 1073741824.0 -1 ------- SRM_SESS}
r -t 2.03207214317274 -s 2 -d 3 -p SRM -e 84 -c 2 -i 4 -a 2 -x {1.1 1073741824.0 -1 ------- SRM_SESS}
+ -t 2.03207214317274 -s 3 -d 4 -p SRM -e 84 -c 2 -i 4 -a 2 -x {1.1 1073741824.0 -1 ------- SRM_SESS}
- -t 2.03207214317274 -s 3 -d 4 -p SRM -e 84 -c 2 -i 4 -a 2 -x {1.1 1073741824.0 -1 ------- SRM_SESS}
h -t 2.03207214317274 -s 3 -d 4 -p SRM -e 84 -c 2 -i 4 -a 2 -x {1.1 1073741824.0 -1 ------- SRM_SESS}
+ -t 2.03207214317274 -s 3 -d 5 -p SRM -e 84 -c 2 -i 4 -a 2 -x {1.1 1073741824.0 -1 ------- SRM_SESS}
- -t 2.03207214317274 -s 3 -d 5 -p SRM -e 84 -c 2 -i 4 -a 2 -x {1.1 1073741824.0 -1 ------- SRM_SESS}
h -t 2.03207214317274 -s 3 -d 5 -p SRM -e 84 -c 2 -i 4 -a 2 -x {1.1 1073741824.0 -1 ------- SRM_SESS}
r -t 2.04252014317274 -s 3 -d 4 -p SRM -e 84 -c 2 -i 4 -a 2 -x {1.1 1073741824.0 -1 ------- SRM_SESS}
r -t 2.04252014317274 -s 3 -d 5 -p SRM -e 84 -c 2 -i 4 -a 2 -x {1.1 1073741824.0 -1 ------- SRM_SESS}
+ -t 2.05983109071843 -s 5 -d 3 -p SRM -e 116 -c 6 -i 5 -a 6 -x {5.1 1073741824.0 -1 ------- SRM_SESS}
- -t 2.05983109071843 -s 5 -d 3 -p SRM -e 116 -c 6 -i 5 -a 6 -x {5.1 1073741824.0 -1 ------- SRM_SESS}
h -t 2.05983109071843 -s 5 -d 3 -p SRM -e 116 -c 6 -i 5 -a 6 -x {5.1 1073741824.0 -1 ------- SRM_SESS}
r -t 2.0704497573851 -s 5 -d 3 -p SRM -e 116 -c 6 -i 5 -a 6 -x {5.1 1073741824.0 -1 ------- SRM_SESS}
+ -t 2.0704497573851 -s 3 -d 2 -p SRM -e 116 -c 6 -i 5 -a 6 -x {5.1 1073741824.0 -1 ------- SRM_SESS}
- -t 2.0704497573851 -s 3 -d 2 -p SRM -e 116 -c 6 -i 5 -a 6 -x {5.1 1073741824.0 -1 ------- SRM_SESS}
h -t 2.0704497573851 -s 3 -d 2 -p SRM -e 116 -c 6 -i 5 -a 6 -x {5.1 1073741824.0 -1 ------- SRM_SESS}
+ -t 2.0704497573851 -s 3 -d 4 -p SRM -e 116 -c 6 -i 5 -a 6 -x {5.1 1073741824.0 -1 ------- SRM_SESS}
- -t 2.0704497573851 -s 3 -d 4 -p SRM -e 116 -c 6 -i 5 -a 6 -x {5.1 1073741824.0 -1 ------- SRM_SESS}
h -t 2.0704497573851 -s 3 -d 4 -p SRM -e 116 -c 6 -i 5 -a 6 -x {5.1 1073741824.0 -1 ------- SRM_SESS}
r -t 2.08106842405176 -s 3 -d 2 -p SRM -e 116 -c 6 -i 5 -a 6 -x {5.1 1073741824.0 -1 ------- SRM_SESS}
+ -t 2.08106842405176 -s 2 -d 1 -p SRM -e 116 -c 6 -i 5 -a 6 -x {5.1 1073741824.0 -1 ------- SRM_SESS}
- -t 2.08106842405176 -s 2 -d 1 -p SRM -e 116 -c 6 -i 5 -a 6 -x {5.1 1073741824.0 -1 ------- SRM_SESS}
h -t 2.08106842405176 -s 2 -d 1 -p SRM -e 116 -c 6 -i 5 -a 6 -x {5.1 1073741824.0 -1 ------- SRM_SESS}
r -t 2.08106842405176 -s 3 -d 4 -p SRM -e 116 -c 6 -i 5 -a 6 -x {5.1 1073741824.0 -1 ------- SRM_SESS}
r -t 2.09168709071843 -s 2 -d 1 -p SRM -e 116 -c 6 -i 5 -a 6 -x {5.1 1073741824.0 -1 ------- SRM_SESS}
+ -t 2.09168709071843 -s 1 -d 0 -p SRM -e 116 -c 6 -i 5 -a 6 -x {5.1 1073741824.0 -1 ------- SRM_SESS}
- -t 2.09168709071843 -s 1 -d 0 -p SRM -e 116 -c 6 -i 5 -a 6 -x {5.1 1073741824.0 -1 ------- SRM_SESS}
h -t 2.09168709071843 -s 1 -d 0 -p SRM -e 116 -c 6 -i 5 -a 6 -x {5.1 1073741824.0 -1 ------- SRM_SESS}
r -t 2.1023057573851 -s 1 -d 0 -p SRM -e 116 -c 6 -i 5 -a 6 -x {5.1 1073741824.0 -1 ------- SRM_SESS}
+ -t 2.8626602697478 -s 0 -d 1 -p SRM -e 116 -c 1 -i 6 -a 1 -x {0.1 1073741824.0 -1 ------- SRM_SESS}
- -t 2.8626602697478 -s 0 -d 1 -p SRM -e 116 -c 1 -i 6 -a 1 -x {0.1 1073741824.0 -1 ------- SRM_SESS}
h -t 2.8626602697478 -s 0 -d 1 -p SRM -e 116 -c 1 -i 6 -a 1 -x {0.1 1073741824.0 -1 ------- SRM_SESS}
+ -t 2.86454488451804 -s 3 -d 2 -p SRM -e 116 -c 4 -i 7 -a 4 -x {3.1 1073741824.0 -1 ------- SRM_SESS}
- -t 2.86454488451804 -s 3 -d 2 -p SRM -e 116 -c 4 -i 7 -a 4 -x {3.1 1073741824.0 -1 ------- SRM_SESS}
h -t 2.86454488451804 -s 3 -d 2 -p SRM -e 116 -c 4 -i 7 -a 4 -x {3.1 1073741824.0 -1 ------- SRM_SESS}
+ -t 2.86454488451804 -s 3 -d 4 -p SRM -e 116 -c 4 -i 7 -a 4 -x {3.1 1073741824.0 -1 ------- SRM_SESS}
- -t 2.86454488451804 -s 3 -d 4 -p SRM -e 116 -c 4 -i 7 -a 4 -x {3.1 1073741824.0 -1 ------- SRM_SESS}
h -t 2.86454488451804 -s 3 -d 4 -p SRM -e 116 -c 4 -i 7 -a 4 -x {3.1 1073741824.0 -1 ------- SRM_SESS}
+ -t 2.86454488451804 -s 3 -d 5 -p SRM -e 116 -c 4 -i 7 -a 4 -x {3.1 1073741824.0 -1 ------- SRM_SESS}
- -t 2.86454488451804 -s 3 -d 5 -p SRM -e 116 -c 4 -i 7 -a 4 -x {3.1 1073741824.0 -1 ------- SRM_SESS}
h -t 2.86454488451804 -s 3 -d 5 -p SRM -e 116 -c 4 -i 7 -a 4 -x {3.1 1073741824.0 -1 ------- SRM_SESS}
r -t 2.87327893641446 -s 0 -d 1 -p SRM -e 116 -c 1 -i 6 -a 1 -x {0.1 1073741824.0 -1 ------- SRM_SESS}
+ -t 2.87327893641446 -s 1 -d 2 -p SRM -e 116 -c 1 -i 6 -a 1 -x {0.1 1073741824.0 -1 ------- SRM_SESS}
- -t 2.87327893641446 -s 1 -d 2 -p SRM -e 116 -c 1 -i 6 -a 1 -x {0.1 1073741824.0 -1 ------- SRM_SESS}
h -t 2.87327893641446 -s 1 -d 2 -p SRM -e 116 -c 1 -i 6 -a 1 -x {0.1 1073741824.0 -1 ------- SRM_SESS}
r -t 2.87516355118471 -s 3 -d 2 -p SRM -e 116 -c 4 -i 7 -a 4 -x {3.1 1073741824.0 -1 ------- SRM_SESS}
+ -t 2.87516355118471 -s 2 -d 1 -p SRM -e 116 -c 4 -i 7 -a 4 -x {3.1 1073741824.0 -1 ------- SRM_SESS}
- -t 2.87516355118471 -s 2 -d 1 -p SRM -e 116 -c 4 -i 7 -a 4 -x {3.1 1073741824.0 -1 ------- SRM_SESS}
h -t 2.87516355118471 -s 2 -d 1 -p SRM -e 116 -c 4 -i 7 -a 4 -x {3.1 1073741824.0 -1 ------- SRM_SESS}
r -t 2.87516355118471 -s 3 -d 4 -p SRM -e 116 -c 4 -i 7 -a 4 -x {3.1 1073741824.0 -1 ------- SRM_SESS}
r -t 2.87516355118471 -s 3 -d 5 -p SRM -e 116 -c 4 -i 7 -a 4 -x {3.1 1073741824.0 -1 ------- SRM_SESS}
r -t 2.88389760308113 -s 1 -d 2 -p SRM -e 116 -c 1 -i 6 -a 1 -x {0.1 1073741824.0 -1 ------- SRM_SESS}
+ -t 2.88389760308113 -s 2 -d 3 -p SRM -e 116 -c 1 -i 6 -a 1 -x {0.1 1073741824.0 -1 ------- SRM_SESS}
- -t 2.88389760308113 -s 2 -d 3 -p SRM -e 116 -c 1 -i 6 -a 1 -x {0.1 1073741824.0 -1 ------- SRM_SESS}
h -t 2.88389760308113 -s 2 -d 3 -p SRM -e 116 -c 1 -i 6 -a 1 -x {0.1 1073741824.0 -1 ------- SRM_SESS}
r -t 2.88578221785138 -s 2 -d 1 -p SRM -e 116 -c 4 -i 7 -a 4 -x {3.1 1073741824.0 -1 ------- SRM_SESS}
+ -t 2.88578221785138 -s 1 -d 0 -p SRM -e 116 -c 4 -i 7 -a 4 -x {3.1 1073741824.0 -1 ------- SRM_SESS}
- -t 2.88578221785138 -s 1 -d 0 -p SRM -e 116 -c 4 -i 7 -a 4 -x {3.1 1073741824.0 -1 ------- SRM_SESS}
h -t 2.88578221785138 -s 1 -d 0 -p SRM -e 116 -c 4 -i 7 -a 4 -x {3.1 1073741824.0 -1 ------- SRM_SESS}
r -t 2.8945162697478 -s 2 -d 3 -p SRM -e 116 -c 1 -i 6 -a 1 -x {0.1 1073741824.0 -1 ------- SRM_SESS}
+ -t 2.8945162697478 -s 3 -d 4 -p SRM -e 116 -c 1 -i 6 -a 1 -x {0.1 1073741824.0 -1 ------- SRM_SESS}
- -t 2.8945162697478 -s 3 -d 4 -p SRM -e 116 -c 1 -i 6 -a 1 -x {0.1 1073741824.0 -1 ------- SRM_SESS}
h -t 2.8945162697478 -s 3 -d 4 -p SRM -e 116 -c 1 -i 6 -a 1 -x {0.1 1073741824.0 -1 ------- SRM_SESS}
+ -t 2.8945162697478 -s 3 -d 5 -p SRM -e 116 -c 1 -i 6 -a 1 -x {0.1 1073741824.0 -1 ------- SRM_SESS}
- -t 2.8945162697478 -s 3 -d 5 -p SRM -e 116 -c 1 -i 6 -a 1 -x {0.1 1073741824.0 -1 ------- SRM_SESS}
h -t 2.8945162697478 -s 3 -d 5 -p SRM -e 116 -c 1 -i 6 -a 1 -x {0.1 1073741824.0 -1 ------- SRM_SESS}
r -t 2.89640088451804 -s 1 -d 0 -p SRM -e 116 -c 4 -i 7 -a 4 -x {3.1 1073741824.0 -1 ------- SRM_SESS}
r -t 2.90513493641446 -s 3 -d 4 -p SRM -e 116 -c 1 -i 6 -a 1 -x {0.1 1073741824.0 -1 ------- SRM_SESS}
r -t 2.90513493641446 -s 3 -d 5 -p SRM -e 116 -c 1 -i 6 -a 1 -x {0.1 1073741824.0 -1 ------- SRM_SESS}
+ -t 2.96613614240947 -s 2 -d 1 -p SRM -e 116 -c 3 -i 8 -a 3 -x {2.1 1073741824.0 -1 ------- SRM_SESS}
- -t 2.96613614240947 -s 2 -d 1 -p SRM -e 116 -c 3 -i 8 -a 3 -x {2.1 1073741824.0 -1 ------- SRM_SESS}
h -t 2.96613614240947 -s 2 -d 1 -p SRM -e 116 -c 3 -i 8 -a 3 -x {2.1 1073741824.0 -1 ------- SRM_SESS}
+ -t 2.96613614240947 -s 2 -d 3 -p SRM -e 116 -c 3 -i 8 -a 3 -x {2.1 1073741824.0 -1 ------- SRM_SESS}
- -t 2.96613614240947 -s 2 -d 3 -p SRM -e 116 -c 3 -i 8 -a 3 -x {2.1 1073741824.0 -1 ------- SRM_SESS}
h -t 2.96613614240947 -s 2 -d 3 -p SRM -e 116 -c 3 -i 8 -a 3 -x {2.1 1073741824.0 -1 ------- SRM_SESS}
+ -t 2.97299195470893 -s 1 -d 0 -p SRM -e 116 -c 2 -i 9 -a 2 -x {1.1 1073741824.0 -1 ------- SRM_SESS}
- -t 2.97299195470893 -s 1 -d 0 -p SRM -e 116 -c 2 -i 9 -a 2 -x {1.1 1073741824.0 -1 ------- SRM_SESS}
h -t 2.97299195470893 -s 1 -d 0 -p SRM -e 116 -c 2 -i 9 -a 2 -x {1.1 1073741824.0 -1 ------- SRM_SESS}
+ -t 2.97299195470893 -s 1 -d 2 -p SRM -e 116 -c 2 -i 9 -a 2 -x {1.1 1073741824.0 -1 ------- SRM_SESS}
- -t 2.97299195470893 -s 1 -d 2 -p SRM -e 116 -c 2 -i 9 -a 2 -x {1.1 1073741824.0 -1 ------- SRM_SESS}
h -t 2.97299195470893 -s 1 -d 2 -p SRM -e 116 -c 2 -i 9 -a 2 -x {1.1 1073741824.0 -1 ------- SRM_SESS}
r -t 2.97675480907614 -s 2 -d 1 -p SRM -e 116 -c 3 -i 8 -a 3 -x {2.1 1073741824.0 -1 ------- SRM_SESS}
+ -t 2.97675480907614 -s 1 -d 0 -p SRM -e 116 -c 3 -i 8 -a 3 -x {2.1 1073741824.0 -1 ------- SRM_SESS}
- -t 2.97675480907614 -s 1 -d 0 -p SRM -e 116 -c 3 -i 8 -a 3 -x {2.1 1073741824.0 -1 ------- SRM_SESS}
h -t 2.97675480907614 -s 1 -d 0 -p SRM -e 116 -c 3 -i 8 -a 3 -x {2.1 1073741824.0 -1 ------- SRM_SESS}
r -t 2.97675480907614 -s 2 -d 3 -p SRM -e 116 -c 3 -i 8 -a 3 -x {2.1 1073741824.0 -1 ------- SRM_SESS}
+ -t 2.97675480907614 -s 3 -d 4 -p SRM -e 116 -c 3 -i 8 -a 3 -x {2.1 1073741824.0 -1 ------- SRM_SESS}
- -t 2.97675480907614 -s 3 -d 4 -p SRM -e 116 -c 3 -i 8 -a 3 -x {2.1 1073741824.0 -1 ------- SRM_SESS}
h -t 2.97675480907614 -s 3 -d 4 -p SRM -e 116 -c 3 -i 8 -a 3 -x {2.1 1073741824.0 -1 ------- SRM_SESS}
+ -t 2.97675480907614 -s 3 -d 5 -p SRM -e 116 -c 3 -i 8 -a 3 -x {2.1 1073741824.0 -1 ------- SRM_SESS}
- -t 2.97675480907614 -s 3 -d 5 -p SRM -e 116 -c 3 -i 8 -a 3 -x {2.1 1073741824.0 -1 ------- SRM_SESS}
h -t 2.97675480907614 -s 3 -d 5 -p SRM -e 116 -c 3 -i 8 -a 3 -x {2.1 1073741824.0 -1 ------- SRM_SESS}
r -t 2.9836106213756 -s 1 -d 0 -p SRM -e 116 -c 2 -i 9 -a 2 -x {1.1 1073741824.0 -1 ------- SRM_SESS}
r -t 2.9836106213756 -s 1 -d 2 -p SRM -e 116 -c 2 -i 9 -a 2 -x {1.1 1073741824.0 -1 ------- SRM_SESS}
+ -t 2.9836106213756 -s 2 -d 3 -p SRM -e 116 -c 2 -i 9 -a 2 -x {1.1 1073741824.0 -1 ------- SRM_SESS}
- -t 2.9836106213756 -s 2 -d 3 -p SRM -e 116 -c 2 -i 9 -a 2 -x {1.1 1073741824.0 -1 ------- SRM_SESS}
h -t 2.9836106213756 -s 2 -d 3 -p SRM -e 116 -c 2 -i 9 -a 2 -x {1.1 1073741824.0 -1 ------- SRM_SESS}
r -t 2.9873734757428 -s 1 -d 0 -p SRM -e 116 -c 3 -i 8 -a 3 -x {2.1 1073741824.0 -1 ------- SRM_SESS}
r -t 2.9873734757428 -s 3 -d 4 -p SRM -e 116 -c 3 -i 8 -a 3 -x {2.1 1073741824.0 -1 ------- SRM_SESS}
r -t 2.9873734757428 -s 3 -d 5 -p SRM -e 116 -c 3 -i 8 -a 3 -x {2.1 1073741824.0 -1 ------- SRM_SESS}
r -t 2.99422928804227 -s 2 -d 3 -p SRM -e 116 -c 2 -i 9 -a 2 -x {1.1 1073741824.0 -1 ------- SRM_SESS}
+ -t 2.99422928804227 -s 3 -d 4 -p SRM -e 116 -c 2 -i 9 -a 2 -x {1.1 1073741824.0 -1 ------- SRM_SESS}
- -t 2.99422928804227 -s 3 -d 4 -p SRM -e 116 -c 2 -i 9 -a 2 -x {1.1 1073741824.0 -1 ------- SRM_SESS}
h -t 2.99422928804227 -s 3 -d 4 -p SRM -e 116 -c 2 -i 9 -a 2 -x {1.1 1073741824.0 -1 ------- SRM_SESS}
+ -t 2.99422928804227 -s 3 -d 5 -p SRM -e 116 -c 2 -i 9 -a 2 -x {1.1 1073741824.0 -1 ------- SRM_SESS}
- -t 2.99422928804227 -s 3 -d 5 -p SRM -e 116 -c 2 -i 9 -a 2 -x {1.1 1073741824.0 -1 ------- SRM_SESS}
h -t 2.99422928804227 -s 3 -d 5 -p SRM -e 116 -c 2 -i 9 -a 2 -x {1.1 1073741824.0 -1 ------- SRM_SESS}
r -t 3.00484795470893 -s 3 -d 4 -p SRM -e 116 -c 2 -i 9 -a 2 -x {1.1 1073741824.0 -1 ------- SRM_SESS}
r -t 3.00484795470893 -s 3 -d 5 -p SRM -e 116 -c 2 -i 9 -a 2 -x {1.1 1073741824.0 -1 ------- SRM_SESS}
+ -t 3.01600770504028 -s 4 -d 3 -p SRM -e 116 -c 5 -i 10 -a 5 -x {4.1 1073741824.0 -1 ------- SRM_SESS}
- -t 3.01600770504028 -s 4 -d 3 -p SRM -e 116 -c 5 -i 10 -a 5 -x {4.1 1073741824.0 -1 ------- SRM_SESS}
h -t 3.01600770504028 -s 4 -d 3 -p SRM -e 116 -c 5 -i 10 -a 5 -x {4.1 1073741824.0 -1 ------- SRM_SESS}
r -t 3.02662637170695 -s 4 -d 3 -p SRM -e 116 -c 5 -i 10 -a 5 -x {4.1 1073741824.0 -1 ------- SRM_SESS}
+ -t 3.02662637170695 -s 3 -d 2 -p SRM -e 116 -c 5 -i 10 -a 5 -x {4.1 1073741824.0 -1 ------- SRM_SESS}
- -t 3.02662637170695 -s 3 -d 2 -p SRM -e 116 -c 5 -i 10 -a 5 -x {4.1 1073741824.0 -1 ------- SRM_SESS}
h -t 3.02662637170695 -s 3 -d 2 -p SRM -e 116 -c 5 -i 10 -a 5 -x {4.1 1073741824.0 -1 ------- SRM_SESS}
+ -t 3.02662637170695 -s 3 -d 5 -p SRM -e 116 -c 5 -i 10 -a 5 -x {4.1 1073741824.0 -1 ------- SRM_SESS}
- -t 3.02662637170695 -s 3 -d 5 -p SRM -e 116 -c 5 -i 10 -a 5 -x {4.1 1073741824.0 -1 ------- SRM_SESS}
h -t 3.02662637170695 -s 3 -d 5 -p SRM -e 116 -c 5 -i 10 -a 5 -x {4.1 1073741824.0 -1 ------- SRM_SESS}
r -t 3.03724503837361 -s 3 -d 2 -p SRM -e 116 -c 5 -i 10 -a 5 -x {4.1 1073741824.0 -1 ------- SRM_SESS}
+ -t 3.03724503837361 -s 2 -d 1 -p SRM -e 116 -c 5 -i 10 -a 5 -x {4.1 1073741824.0 -1 ------- SRM_SESS}
- -t 3.03724503837361 -s 2 -d 1 -p SRM -e 116 -c 5 -i 10 -a 5 -x {4.1 1073741824.0 -1 ------- SRM_SESS}
h -t 3.03724503837361 -s 2 -d 1 -p SRM -e 116 -c 5 -i 10 -a 5 -x {4.1 1073741824.0 -1 ------- SRM_SESS}
r -t 3.03724503837361 -s 3 -d 5 -p SRM -e 116 -c 5 -i 10 -a 5 -x {4.1 1073741824.0 -1 ------- SRM_SESS}
r -t 3.04786370504028 -s 2 -d 1 -p SRM -e 116 -c 5 -i 10 -a 5 -x {4.1 1073741824.0 -1 ------- SRM_SESS}
+ -t 3.04786370504028 -s 1 -d 0 -p SRM -e 116 -c 5 -i 10 -a 5 -x {4.1 1073741824.0 -1 ------- SRM_SESS}
- -t 3.04786370504028 -s 1 -d 0 -p SRM -e 116 -c 5 -i 10 -a 5 -x {4.1 1073741824.0 -1 ------- SRM_SESS}
h -t 3.04786370504028 -s 1 -d 0 -p SRM -e 116 -c 5 -i 10 -a 5 -x {4.1 1073741824.0 -1 ------- SRM_SESS}
r -t 3.05848237170695 -s 1 -d 0 -p SRM -e 116 -c 5 -i 10 -a 5 -x {4.1 1073741824.0 -1 ------- SRM_SESS}
+ -t 3.12709579808968 -s 5 -d 3 -p SRM -e 116 -c 6 -i 11 -a 6 -x {5.1 1073741824.0 -1 ------- SRM_SESS}
- -t 3.12709579808968 -s 5 -d 3 -p SRM -e 116 -c 6 -i 11 -a 6 -x {5.1 1073741824.0 -1 ------- SRM_SESS}
h -t 3.12709579808968 -s 5 -d 3 -p SRM -e 116 -c 6 -i 11 -a 6 -x {5.1 1073741824.0 -1 ------- SRM_SESS}
r -t 3.13771446475635 -s 5 -d 3 -p SRM -e 116 -c 6 -i 11 -a 6 -x {5.1 1073741824.0 -1 ------- SRM_SESS}
+ -t 3.13771446475635 -s 3 -d 2 -p SRM -e 116 -c 6 -i 11 -a 6 -x {5.1 1073741824.0 -1 ------- SRM_SESS}
- -t 3.13771446475635 -s 3 -d 2 -p SRM -e 116 -c 6 -i 11 -a 6 -x {5.1 1073741824.0 -1 ------- SRM_SESS}
h -t 3.13771446475635 -s 3 -d 2 -p SRM -e 116 -c 6 -i 11 -a 6 -x {5.1 1073741824.0 -1 ------- SRM_SESS}
+ -t 3.13771446475635 -s 3 -d 4 -p SRM -e 116 -c 6 -i 11 -a 6 -x {5.1 1073741824.0 -1 ------- SRM_SESS}
- -t 3.13771446475635 -s 3 -d 4 -p SRM -e 116 -c 6 -i 11 -a 6 -x {5.1 1073741824.0 -1 ------- SRM_SESS}
h -t 3.13771446475635 -s 3 -d 4 -p SRM -e 116 -c 6 -i 11 -a 6 -x {5.1 1073741824.0 -1 ------- SRM_SESS}
r -t 3.14833313142301 -s 3 -d 2 -p SRM -e 116 -c 6 -i 11 -a 6 -x {5.1 1073741824.0 -1 ------- SRM_SESS}
+ -t 3.14833313142301 -s 2 -d 1 -p SRM -e 116 -c 6 -i 11 -a 6 -x {5.1 1073741824.0 -1 ------- SRM_SESS}
- -t 3.14833313142301 -s 2 -d 1 -p SRM -e 116 -c 6 -i 11 -a 6 -x {5.1 1073741824.0 -1 ------- SRM_SESS}
h -t 3.14833313142301 -s 2 -d 1 -p SRM -e 116 -c 6 -i 11 -a 6 -x {5.1 1073741824.0 -1 ------- SRM_SESS}
r -t 3.14833313142301 -s 3 -d 4 -p SRM -e 116 -c 6 -i 11 -a 6 -x {5.1 1073741824.0 -1 ------- SRM_SESS}
r -t 3.15895179808968 -s 2 -d 1 -p SRM -e 116 -c 6 -i 11 -a 6 -x {5.1 1073741824.0 -1 ------- SRM_SESS}
+ -t 3.15895179808968 -s 1 -d 0 -p SRM -e 116 -c 6 -i 11 -a 6 -x {5.1 1073741824.0 -1 ------- SRM_SESS}
- -t 3.15895179808968 -s 1 -d 0 -p SRM -e 116 -c 6 -i 11 -a 6 -x {5.1 1073741824.0 -1 ------- SRM_SESS}
h -t 3.15895179808968 -s 1 -d 0 -p SRM -e 116 -c 6 -i 11 -a 6 -x {5.1 1073741824.0 -1 ------- SRM_SESS}
r -t 3.16957046475635 -s 1 -d 0 -p SRM -e 116 -c 6 -i 11 -a 6 -x {5.1 1073741824.0 -1 ------- SRM_SESS}
+ -t 3.5 -s 0 -d 1 -p cbr -e 800 -c 0 -i 12 -a 0 -x {0.1 1073741824.0 0 ------- SRM_DATA}
- -t 3.5 -s 0 -d 1 -p cbr -e 800 -c 0 -i 12 -a 0 -x {0.1 1073741824.0 0 ------- SRM_DATA}
h -t 3.5 -s 0 -d 1 -p cbr -e 800 -c 0 -i 12 -a 0 -x {0.1 1073741824.0 -1 ------- SRM_DATA}
n -t 3.5 -s 0 -S COLOR -c red -o black -i red -I black
v -t 3.5 -e sim_annotation 3.5 1 node 0 changed color
r -t 3.51426666666667 -s 0 -d 1 -p cbr -e 800 -c 0 -i 12 -a 0 -x {0.1 1073741824.0 0 ------- SRM_DATA}
+ -t 3.51426666666667 -s 1 -d 2 -p cbr -e 800 -c 0 -i 12 -a 0 -x {0.1 1073741824.0 0 ------- SRM_DATA}
- -t 3.51426666666667 -s 1 -d 2 -p cbr -e 800 -c 0 -i 12 -a 0 -x {0.1 1073741824.0 0 ------- SRM_DATA}
h -t 3.51426666666667 -s 1 -d 2 -p cbr -e 800 -c 0 -i 12 -a 0 -x {0.1 1073741824.0 -1 ------- SRM_DATA}
+ -t 3.52 -s 0 -d 1 -p cbr -e 800 -c 0 -i 13 -a 0 -x {0.1 1073741824.0 1 ------- SRM_DATA}
- -t 3.52 -s 0 -d 1 -p cbr -e 800 -c 0 -i 13 -a 0 -x {0.1 1073741824.0 1 ------- SRM_DATA}
h -t 3.52 -s 0 -d 1 -p cbr -e 800 -c 0 -i 13 -a 0 -x {0.1 1073741824.0 -1 ------- SRM_DATA}
r -t 3.52853333333333 -s 1 -d 2 -p cbr -e 800 -c 0 -i 12 -a 0 -x {0.1 1073741824.0 0 ------- SRM_DATA}
+ -t 3.52853333333333 -s 2 -d 3 -p cbr -e 800 -c 0 -i 12 -a 0 -x {0.1 1073741824.0 0 ------- SRM_DATA}
- -t 3.52853333333333 -s 2 -d 3 -p cbr -e 800 -c 0 -i 12 -a 0 -x {0.1 1073741824.0 0 ------- SRM_DATA}
h -t 3.52853333333333 -s 2 -d 3 -p cbr -e 800 -c 0 -i 12 -a 0 -x {0.1 1073741824.0 -1 ------- SRM_DATA}
r -t 3.53426666666667 -s 0 -d 1 -p cbr -e 800 -c 0 -i 13 -a 0 -x {0.1 1073741824.0 1 ------- SRM_DATA}
+ -t 3.53426666666667 -s 1 -d 2 -p cbr -e 800 -c 0 -i 13 -a 0 -x {0.1 1073741824.0 1 ------- SRM_DATA}
- -t 3.53426666666667 -s 1 -d 2 -p cbr -e 800 -c 0 -i 13 -a 0 -x {0.1 1073741824.0 1 ------- SRM_DATA}
h -t 3.53426666666667 -s 1 -d 2 -p cbr -e 800 -c 0 -i 13 -a 0 -x {0.1 1073741824.0 -1 ------- SRM_DATA}
+ -t 3.54 -s 0 -d 1 -p cbr -e 800 -c 0 -i 14 -a 0 -x {0.1 1073741824.0 2 ------- SRM_DATA}
- -t 3.54 -s 0 -d 1 -p cbr -e 800 -c 0 -i 14 -a 0 -x {0.1 1073741824.0 2 ------- SRM_DATA}
h -t 3.54 -s 0 -d 1 -p cbr -e 800 -c 0 -i 14 -a 0 -x {0.1 1073741824.0 -1 ------- SRM_DATA}
r -t 3.5428 -s 2 -d 3 -p cbr -e 800 -c 0 -i 12 -a 0 -x {0.1 1073741824.0 0 ------- SRM_DATA}
+ -t 3.5428 -s 3 -d 4 -p cbr -e 800 -c 0 -i 12 -a 0 -x {0.1 1073741824.0 0 ------- SRM_DATA}
- -t 3.5428 -s 3 -d 4 -p cbr -e 800 -c 0 -i 12 -a 0 -x {0.1 1073741824.0 0 ------- SRM_DATA}
h -t 3.5428 -s 3 -d 4 -p cbr -e 800 -c 0 -i 12 -a 0 -x {0.1 1073741824.0 -1 ------- SRM_DATA}
+ -t 3.5428 -s 3 -d 5 -p cbr -e 800 -c 0 -i 12 -a 0 -x {0.1 1073741824.0 0 ------- SRM_DATA}
- -t 3.5428 -s 3 -d 5 -p cbr -e 800 -c 0 -i 12 -a 0 -x {0.1 1073741824.0 0 ------- SRM_DATA}
h -t 3.5428 -s 3 -d 5 -p cbr -e 800 -c 0 -i 12 -a 0 -x {0.1 1073741824.0 -1 ------- SRM_DATA}
r -t 3.54853333333333 -s 1 -d 2 -p cbr -e 800 -c 0 -i 13 -a 0 -x {0.1 1073741824.0 1 ------- SRM_DATA}
+ -t 3.54853333333333 -s 2 -d 3 -p cbr -e 800 -c 0 -i 13 -a 0 -x {0.1 1073741824.0 1 ------- SRM_DATA}
- -t 3.54853333333333 -s 2 -d 3 -p cbr -e 800 -c 0 -i 13 -a 0 -x {0.1 1073741824.0 1 ------- SRM_DATA}
h -t 3.54853333333333 -s 2 -d 3 -p cbr -e 800 -c 0 -i 13 -a 0 -x {0.1 1073741824.0 -1 ------- SRM_DATA}
r -t 3.55426666666667 -s 0 -d 1 -p cbr -e 800 -c 0 -i 14 -a 0 -x {0.1 1073741824.0 2 ------- SRM_DATA}