v 0.20000000000000001 eval {set sim_annotation {1 sending message 1}}
s -t 0.200000000 -Hs 1 -Hd -2 -Ni 1 -Nx 200.00 -Ny 0.00 -Nz 0.00 -Ne -1.000000 -Nl AGT -Nw --- -Ma 0 -Md 0 -Ms 0 -Mt 0 -Is 1.42 -Id -1.42 -It message -Il 200 -If 0 -Ii 0 -Iv 32 
s -t 0.203625000 -Hs 1 -Hd -2 -Ni 1 -Nx 200.00 -Ny 0.00 -Nz 0.00 -Ne -1.000000 -Nl MAC -Nw --- -Ma 0 -Md 1000000 -Ms ffff0008 -Mt 0 -Is 1.42 -Id -1.42 -It message -Il 200 -If 0 -Ii 0 -Iv 32 
r -t 0.205225533 -Hs 3 -Hd -2 -Ni 3 -Nx 200.00 -Ny 160.00 -Nz 0.00 -Ne -1.000000 -Nl MAC -Nw --- -Ma 0 -Md 1000000 -Ms ffff0008 -Mt 0 -Is 1.42 -Id -1.42 -It message -Il 200 -If 0 -Ii 0 -Iv 32 
r -t 0.205225667 -Hs 0 -Hd -2 -Ni 0 -Nx 0.00 -Ny 0.00 -Nz 0.00 -Ne -1.000000 -Nl MAC -Nw --- -Ma 0 -Md 1000000 -Ms ffff0008 -Mt 0 -Is 1.42 -Id -1.42 -It message -Il 200 -If 0 -Ii 0 -Iv 32 
d -t 0.205225854 -Hs 2 -Hd -2 -Ni 2 -Nx 0.00 -Ny 160.00 -Nz 0.00 -Ne -1.000000 -Nl MAC -Nw ERR -Ma 0 -Md 1000000 -Ms ffff0008 -Mt 0 -Is 1.42 -Id -1.42 -It message -Il 200 -If 0 -Ii 0 -Iv 32 
d -t 0.205225934 -Hs 4 -Hd -2 -Ni 4 -Nx 360.00 -Ny 230.00 -Nz 0.00 -Ne -1.000000 -Nl MAC -Nw ERR -Ma 0 -Md 1000000 -Ms ffff0008 -Mt 0 -Is 1.42 -Id -1.42 -It message -Il 200 -If 0 -Ii 0 -Iv 32 
d -t 0.205226405 -Hs 6 -Hd -2 -Ni 6 -Nx 360.00 -Ny 390.00 -Nz 0.00 -Ne -1.000000 -Nl MAC -Nw ERR -Ma 0 -Md 1000000 -Ms ffff0008 -Mt 0 -Is 1.42 -Id -1.42 -It message -Il 200 -If 0 -Ii 0 -Iv 32 
d -t 0.205226424 -Hs 5 -Hd -2 -Ni 5 -Nx 560.00 -Ny 230.00 -Nz 0.00 -Ne -1.000000 -Nl MAC -Nw ERR -Ma 0 -Md 1000000 -Ms ffff0008 -Mt 0 -Is 1.42 -Id -1.42 -It message -Il 200 -If 0 -Ii 0 -Iv 32 
d -t 0.205226533 -Hs 9 -Hd -2 -Ni 9 -Nx 200.00 -Ny 460.00 -Nz 0.00 -Ne -1.000000 -Nl MAC -Nw ERR -Ma 0 -Md 1000000 -Ms ffff0008 -Mt 0 -Is 1.42 -Id -1.42 -It message -Il 200 -If 0 -Ii 0 -Iv 32 
d -t 0.205226672 -Hs 8 -Hd -2 -Ni 8 -Nx 0.00 -Ny 460.00 -Nz 0.00 -Ne -1.000000 -Nl MAC -Nw ERR -Ma 0 -Md 1000000 -Ms ffff0008 -Mt 0 -Is 1.42 -Id -1.42 -It message -Il 200 -If 0 -Ii 0 -Iv 32 
d -t 0.205226769 -Hs 7 -Hd -2 -Ni 7 -Nx 560.00 -Ny 390.00 -Nz 0.00 -Ne -1.000000 -Nl MAC -Nw ERR -Ma 0 -Md 1000000 -Ms ffff0008 -Mt 0 -Is 1.42 -Id -1.42 -It message -Il 200 -If 0 -Ii 0 -Iv 32 
r -t 0.205250533 -Hs 3 -Hd -2 -Ni 3 -Nx 200.00 -Ny 160.00 -Nz 0.00 -Ne -1.000000 -Nl AGT -Nw --- -Ma 0 -Md 1000000 -Ms ffff0008 -Mt 0 -Is 1.42 -Id -1.42 -It message -Il 200 -If 0 -Ii 0 -Iv 32 
v 0.20525053333333332 eval {set sim_annotation {3 received {1:first message} from 1}}
v 0.20525053333333332 eval {set sim_annotation {3 sending message 1}}
s -t 0.205250533 -Hs 3 -Hd -2 -Ni 3 -Nx 200.00 -Ny 160.00 -Nz 0.00 -Ne -1.000000 -Nl AGT -Nw --- -Ma 0 -Md 0 -Ms 0 -Mt 0 -Is 3.42 -Id -1.42 -It message -Il 200 -If 0 -Ii 1 -Iv 32 
r -t 0.205250667 -Hs 0 -Hd -2 -Ni 0 -Nx 0.00 -Ny 0.00 -Nz 0.00 -Ne -1.000000 -Nl AGT -Nw --- -Ma 0 -Md 1000000 -Ms ffff0008 -Mt 0 -Is 1.42 -Id -1.42 -It message -Il 200 -If 0 -Ii 0 -Iv 32 
v 0.20525066666666666 eval {set sim_annotation {0 received {1:first message} from 1}}
v 0.20525066666666666 eval {set sim_annotation {0 sending message 1}}
s -t 0.205250667 -Hs 0 -Hd -2 -Ni 0 -Nx 0.00 -Ny 0.00 -Nz 0.00 -Ne -1.000000 -Nl AGT -Nw --- -Ma 0 -Md 0 -Ms 0 -Mt 0 -Is 0.42 -Id -1.42 -It message -Il 200 -If 0 -Ii 2 -Iv 32 
s -t 0.207975533 -Hs 3 -Hd -2 -Ni 3 -Nx 200.00 -Ny 160.00 -Nz 0.00 -Ne -1.000000 -Nl MAC -Nw --- -Ma 0 -Md 3000000 -Ms ffff0008 -Mt 0 -Is 3.42 -Id -1.42 -It message -Il 200 -If 0 -Ii 1 -Iv 32 
s -t 0.208875667 -Hs 0 -Hd -2 -Ni 0 -Nx 0.00 -Ny 0.00 -Nz 0.00 -Ne -1.000000 -Nl MAC -Nw --- -Ma 0 -Md 0 -Ms ffff0008 -Mt 0 -Is 0.42 -Id -1.42 -It message -Il 200 -If 0 -Ii 2 -Iv 32 
r -t 0.209576115 -Hs 4 -Hd -2 -Ni 4 -Nx 360.00 -Ny 230.00 -Nz 0.00 -Ne -1.000000 -Nl MAC -Nw --- -Ma 0 -Md 3000000 -Ms ffff0008 -Mt 0 -Is 3.42 -Id -1.42 -It message -Il 200 -If 0 -Ii 1 -Iv 32 
d -t 0.209576467 -Hs 6 -Hd -2 -Ni 6 -Nx 360.00 -Ny 390.00 -Nz 0.00 -Ne -1.000000 -Nl MAC -Nw ERR -Ma 0 -Md 3000000 -Ms ffff0008 -Mt 0 -Is 3.42 -Id -1.42 -It message -Il 200 -If 0 -Ii 1 -Iv 32 
d -t 0.209576756 -Hs 5 -Hd -2 -Ni 5 -Nx 560.00 -Ny 230.00 -Nz 0.00 -Ne -1.000000 -Nl MAC -Nw ERR -Ma 0 -Md 3000000 -Ms ffff0008 -Mt 0 -Is 3.42 -Id -1.42 -It message -Il 200 -If 0 -Ii 1 -Iv 32 
d -t 0.209576957 -Hs 7 -Hd -2 -Ni 7 -Nx 560.00 -Ny 390.00 -Nz 0.00 -Ne -1.000000 -Nl MAC -Nw ERR -Ma 0 -Md 3000000 -Ms ffff0008 -Mt 0 -Is 3.42 -Id -1.42 -It message -Il 200 -If 0 -Ii 1 -Iv 32 
d -t 0.209577067 -Hs 11 -Hd -2 -Ni 11 -Nx 200.00 -Ny 620.00 -Nz 0.00 -Ne -1.000000 -Nl MAC -Nw ERR -Ma 0 -Md 3000000 -Ms ffff0008 -Mt 0 -Is 3.42 -Id -1.42 -It message -Il 200 -If 0 -Ii 1 -Iv 32 
d -t 0.209577205 -Hs 10 -Hd -2 -Ni 10 -Nx 0.00 -Ny 620.00 -Nz 0.00 -Ne -1.000000 -Nl MAC -Nw ERR -Ma 0 -Md 3000000 -Ms ffff0008 -Mt 0 -Is 3.42 -Id -1.42 -It message -Il 200 -If 0 -Ii 1 -Iv 32 
r -t 0.209601115 -Hs 4 -Hd -2 -Ni 4 -Nx 360.00 -Ny 230.00 -Nz 0.00 -Ne -1.000000 -Nl AGT -Nw --- -Ma 0 -Md 3000000 -Ms ffff0008 -Mt 0 -Is 3.42 -Id -1.42 -It message -Il 200 -If 0 -Ii 1 -Iv 32 
v 0.2096011154749732 eval {set sim_annotation {4 received {1:first message} from 3}}
v 0.2096011154749732 eval {set sim_annotation {4 sending message 1}}
s -t 0.209601115 -Hs 4 -Hd -2 -Ni 4 -Nx 360.00 -Ny 230.00 -Nz 0.00 -Ne -1.000000 -Nl AGT -Nw --- -Ma 0 -Md 0 -Ms 0 -Mt 0 -Is 4.42 -Id -1.42 -It message -Il 200 -If 0 -Ii 3 -Iv 32 
d -t 0.210476200 -Hs 2 -Hd -2 -Ni 2 -Nx 0.00 -Ny 160.00 -Nz 0.00 -Ne -1.000000 -Nl MAC -Nw COL -Ma 0 -Md 0 -Ms ffff0008 -Mt 0 -Is 0.42 -Id -1.42 -It message -Il 200 -If 0 -Ii 2 -Iv 32 
d -t 0.210476333 -Hs 1 -Hd -2 -Ni 1 -Nx 200.00 -Ny 0.00 -Nz 0.00 -Ne -1.000000 -Nl MAC -Nw COL -Ma 0 -Md 0 -Ms ffff0008 -Mt 0 -Is 0.42 -Id -1.42 -It message -Il 200 -If 0 -Ii 2 -Iv 32 
d -t 0.210476520 -Hs 3 -Hd -2 -Ni 3 -Nx 200.00 -Ny 160.00 -Nz 0.00 -Ne -1.000000 -Nl MAC -Nw ERR -Ma 0 -Md 0 -Ms ffff0008 -Mt 0 -Is 0.42 -Id -1.42 -It message -Il 200 -If 0 -Ii 2 -Iv 32 
d -t 0.210477200 -Hs 8 -Hd -2 -Ni 8 -Nx 0.00 -Ny 460.00 -Nz 0.00 -Ne -1.000000 -Nl MAC -Nw COL -Ma 0 -Md 0 -Ms ffff0008 -Mt 0 -Is 0.42 -Id -1.42 -It message -Il 200 -If 0 -Ii 2 -Iv 32 
d -t 0.210477339 -Hs 9 -Hd -2 -Ni 9 -Nx 200.00 -Ny 460.00 -Nz 0.00 -Ne -1.000000 -Nl MAC -Nw COL -Ma 0 -Md 0 -Ms ffff0008 -Mt 0 -Is 0.42 -Id -1.42 -It message -Il 200 -If 0 -Ii 2 -Iv 32 
s -t 0.213126115 -Hs 4 -Hd -2 -Ni 4 -Nx 360.00 -Ny 230.00 -Nz 0.00 -Ne -1.000000 -Nl MAC -Nw --- -Ma 0 -Md 4000000 -Ms ffff0008 -Mt 0 -Is 4.42 -Id -1.42 -It message -Il 200 -If 0 -Ii 3 -Iv 32 
r -t 0.214726649 -Hs 6 -Hd -2 -Ni 6 -Nx 360.00 -Ny 390.00 -Nz 0.00 -Ne -1.000000 -Nl MAC -Nw --- -Ma 0 -Md 4000000 -Ms ffff0008 -Mt 0 -Is 4.42 -Id -1.42 -It message -Il 200 -If 0 -Ii 3 -Iv 32 
r -t 0.214726698 -Hs 3 -Hd -2 -Ni 3 -Nx 200.00 -Ny 160.00 -Nz 0.00 -Ne -1.000000 -Nl MAC -Nw --- -Ma 0 -Md 4000000 -Ms ffff0008 -Mt 0 -Is 4.42 -Id -1.42 -It message -Il 200 -If 0 -Ii 3 -Iv 32 
r -t 0.214726782 -Hs 5 -Hd -2 -Ni 5 -Nx 560.00 -Ny 230.00 -Nz 0.00 -Ne -1.000000 -Nl MAC -Nw --- -Ma 0 -Md 4000000 -Ms ffff0008 -Mt 0 -Is 4.42 -Id -1.42 -It message -Il 200 -If 0 -Ii 3 -Iv 32 
d -t 0.214726969 -Hs 7 -Hd -2 -Ni 7 -Nx 560.00 -Ny 390.00 -Nz 0.00 -Ne -1.000000 -Nl MAC -Nw ERR -Ma 0 -Md 4000000 -Ms ffff0008 -Mt 0 -Is 4.42 -Id -1.42 -It message -Il 200 -If 0 -Ii 3 -Iv 32 
d -t 0.214727049 -Hs 9 -Hd -2 -Ni 9 -Nx 200.00 -Ny 460.00 -Nz 0.00 -Ne -1.000000 -Nl MAC -Nw ERR -Ma 0 -Md 4000000 -Ms ffff0008 -Mt 0 -Is 4.42 -Id -1.42 -It message -Il 200 -If 0 -Ii 3 -Iv 32 
d -t 0.214727049 -Hs 1 -Hd -2 -Ni 1 -Nx 200.00 -Ny 0.00 -Nz 0.00 -Ne -1.000000 -Nl MAC -Nw ERR -Ma 0 -Md 4000000 -Ms ffff0008 -Mt 0 -Is 4.42 -Id -1.42 -It message -Il 200 -If 0 -Ii 3 -Iv 32 
d -t 0.214727338 -Hs 2 -Hd -2 -Ni 2 -Nx 0.00 -Ny 160.00 -Nz 0.00 -Ne -1.000000 -Nl MAC -Nw ERR -Ma 0 -Md 4000000 -Ms ffff0008 -Mt 0 -Is 4.42 -Id -1.42 -It message -Il 200 -If 0 -Ii 3 -Iv 32 
d -t 0.214727521 -Hs 11 -Hd -2 -Ni 11 -Nx 200.00 -Ny 620.00 -Nz 0.00 -Ne -1.000000 -Nl MAC -Nw ERR -Ma 0 -Md 4000000 -Ms ffff0008 -Mt 0 -Is 4.42 -Id -1.42 -It message -Il 200 -If 0 -Ii 3 -Iv 32 
d -t 0.214727539 -Hs 8 -Hd -2 -Ni 8 -Nx 0.00 -Ny 460.00 -Nz 0.00 -Ne -1.000000 -Nl MAC -Nw ERR -Ma 0 -Md 4000000 -Ms ffff0008 -Mt 0 -Is 4.42 -Id -1.42 -It message -Il 200 -If 0 -Ii 3 -Iv 32 
d -t 0.214727539 -Hs 0 -Hd -2 -Ni 0 -Nx 0.00 -Ny 0.00 -Nz 0.00 -Ne -1.000000 -Nl MAC -Nw ERR -Ma 0 -Md 4000000 -Ms ffff0008 -Mt 0 -Is 4.42 -Id -1.42 -It message -Il 200 -If 0 -Ii 3 -Iv 32 
d -t 0.214727649 -Hs 12 -Hd -2 -Ni 12 -Nx 360.00 -Ny 690.00 -Nz 0.00 -Ne -1.000000 -Nl MAC -Nw ERR -Ma 0 -Md 4000000 -Ms ffff0008 -Mt 0 -Is 4.42 -Id -1.42 -It message -Il 200 -If 0 -Ii 3 -Iv 32 
d -t 0.214727787 -Hs 13 -Hd -2 -Ni 13 -Nx 560.00 -Ny 690.00 -Nz 0.00 -Ne -1.000000 -Nl MAC -Nw ERR -Ma 0 -Md 4000000 -Ms ffff0008 -Mt 0 -Is 4.42 -Id -1.42 -It message -Il 200 -If 0 -Ii 3 -Iv 32 
d -t 0.214727885 -Hs 10 -Hd -2 -Ni 10 -Nx 0.00 -Ny 620.00 -Nz 0.00 -Ne -1.000000 -Nl MAC -Nw ERR -Ma 0 -Md 4000000 -Ms ffff0008 -Mt 0 -Is 4.42 -Id -1.42 -It message -Il 200 -If 0 -Ii 3 -Iv 32 
r -t 0.214751649 -Hs 6 -Hd -2 -Ni 6 -Nx 360.00 -Ny 390.00 -Nz 0.00 -Ne -1.000000 -Nl AGT -Nw --- -Ma 0 -Md 4000000 -Ms ffff0008 -Mt 0 -Is 4.42 -Id -1.42 -It message -Il 200 -If 0 -Ii 3 -Iv 32 
v 0.21475164880830652 eval {set sim_annotation {6 received {1:first message} from 4}}
v 0.21475164880830652 eval {set sim_annotation {6 sending message 1}}
s -t 0.214751649 -Hs 6 -Hd -2 -Ni 6 -Nx 360.00 -Ny 390.00 -Nz 0.00 -Ne -1.000000 -Nl AGT -Nw --- -Ma 0 -Md 0 -Ms 0 -Mt 0 -Is 6.42 -Id -1.42 -It message -Il 200 -If 0 -Ii 4 -Iv 32 
r -t 0.214751698 -Hs 3 -Hd -2 -Ni 3 -Nx 200.00 -Ny 160.00 -Nz 0.00 -Ne -1.000000 -Nl AGT -Nw --- -Ma 0 -Md 4000000 -Ms ffff0008 -Mt 0 -Is 4.42 -Id -1.42 -It message -Il 200 -If 0 -Ii 3 -Iv 32 
v 0.21475169761661309 eval {set sim_annotation {3 received redundant message 1 from 4}}
r -t 0.214751782 -Hs 5 -Hd -2 -Ni 5 -Nx 560.00 -Ny 230.00 -Nz 0.00 -Ne -1.000000 -Nl AGT -Nw --- -Ma 0 -Md 4000000 -Ms ffff0008 -Mt 0 -Is 4.42 -Id -1.42 -It message -Il 200 -If 0 -Ii 3 -Iv 32 
v 0.21475178214163987 eval {set sim_annotation {5 received {1:first message} from 4}}
v 0.21475178214163987 eval {set sim_annotation {5 sending message 1}}
s -t 0.214751782 -Hs 5 -Hd -2 -Ni 5 -Nx 560.00 -Ny 230.00 -Nz 0.00 -Ne -1.000000 -Nl AGT -Nw --- -Ma 0 -Md 0 -Ms 0 -Mt 0 -Is 5.42 -Id -1.42 -It message -Il 200 -If 0 -Ii 5 -Iv 32 
s -t 0.217076649 -Hs 6 -Hd -2 -Ni 6 -Nx 360.00 -Ny 390.00 -Nz 0.00 -Ne -1.000000 -Nl MAC -Nw --- -Ma 0 -Md 6000000 -Ms ffff0008 -Mt 0 -Is 6.42 -Id -1.42 -It message -Il 200 -If 0 -Ii 4 -Iv 32 
s -t 0.217576782 -Hs 5 -Hd -2 -Ni 5 -Nx 560.00 -Ny 230.00 -Nz 0.00 -Ne -1.000000 -Nl MAC -Nw --- -Ma 0 -Md 5000000 -Ms ffff0008 -Mt 0 -Is 5.42 -Id -1.42 -It message -Il 200 -If 0 -Ii 5 -Iv 32 
r -t 0.218677231 -Hs 9 -Hd -2 -Ni 9 -Nx 200.00 -Ny 460.00 -Nz 0.00 -Ne -1.000000 -Nl MAC -Nw --- -Ma 0 -Md 6000000 -Ms ffff0008 -Mt 0 -Is 6.42 -Id -1.42 -It message -Il 200 -If 0 -Ii 4 -Iv 32 
d -t 0.218677583 -Hs 11 -Hd -2 -Ni 11 -Nx 200.00 -Ny 620.00 -Nz 0.00 -Ne -1.000000 -Nl MAC -Nw ERR -Ma 0 -Md 6000000 -Ms ffff0008 -Mt 0 -Is 6.42 -Id -1.42 -It message -Il 200 -If 0 -Ii 4 -Iv 32 
d -t 0.218677871 -Hs 8 -Hd -2 -Ni 8 -Nx 0.00 -Ny 460.00 -Nz 0.00 -Ne -1.000000 -Nl MAC -Nw ERR -Ma 0 -Md 6000000 -Ms ffff0008 -Mt 0 -Is 6.42 -Id -1.42 -It message -Il 200 -If 0 -Ii 4 -Iv 32 
d -t 0.218678073 -Hs 10 -Hd -2 -Ni 10 -Nx 0.00 -Ny 620.00 -Nz 0.00 -Ne -1.000000 -Nl MAC -Nw ERR -Ma 0 -Md 6000000 -Ms ffff0008 -Mt 0 -Is 6.42 -Id -1.42 -It message -Il 200 -If 0 -Ii 4 -Iv 32 
d -t 0.218678073 -Hs 2 -Hd -2 -Ni 2 -Nx 0.00 -Ny 160.00 -Nz 0.00 -Ne -1.000000 -Nl MAC -Nw ERR -Ma 0 -Md 6000000 -Ms ffff0008 -Mt 0 -Is 6.42 -Id -1.42 -It message -Il 200 -If 0 -Ii 4 -Iv 32 
d -t 0.218678182 -Hs 14 -Hd -2 -Ni 14 -Nx 360.00 -Ny 850.00 -Nz 0.00 -Ne -1.000000 -Nl MAC -Nw ERR -Ma 0 -Md 6000000 -Ms ffff0008 -Mt 0 -Is 6.42 -Id -1.42 -It message -Il 200 -If 0 -Ii 4 -Iv 32 
d -t 0.218678321 -Hs 15 -Hd -2 -Ni 15 -Nx 560.00 -Ny 850.00 -Nz 0.00 -Ne -1.000000 -Nl MAC -Nw ERR -Ma 0 -Md 6000000 -Ms ffff0008 -Mt 0 -Is 6.42 -Id -1.42 -It message -Il 200 -If 0 -Ii 4 -Iv 32 
d -t 0.218678418 -Hs 0 -Hd -2 -Ni 0 -Nx 0.00 -Ny 0.00 -Nz 0.00 -Ne -1.000000 -Nl MAC -Nw ERR -Ma 0 -Md 6000000 -Ms ffff0008 -Mt 0 -Is 6.42 -Id -1.42 -It message -Il 200 -If 0 -Ii 4 -Iv 32 
r -t 0.218702231 -Hs 9 -Hd -2 -Ni 9 -Nx 200.00 -Ny 460.00 -Nz 0.00 -Ne -1.000000 -Nl AGT -Nw --- -Ma 0 -Md 6000000 -Ms ffff0008 -Mt 0 -Is 6.42 -Id -1.42 -It message -Il 200 -If 0 -Ii 4 -Iv 32 
v 0.2187022309499464 eval {set sim_annotation {9 received {1:first message} from 6}}
v 0.2187022309499464 eval {set sim_annotation {9 sending message 1}}
s -t 0.218702231 -Hs 9 -Hd -2 -Ni 9 -Nx 200.00 -Ny 460.00 -Nz 0.00 -Ne -1.000000 -Nl AGT -Nw --- -Ma 0 -Md 0 -Ms 0 -Mt 0 -Is 9.42 -Id -1.42 -It message -Il 200 -If 0 -Ii 6 -Iv 32 
d -t 0.219177315 -Hs 7 -Hd -2 -Ni 7 -Nx 560.00 -Ny 390.00 -Nz 0.00 -Ne -1.000000 -Nl MAC -Nw COL -Ma 0 -Md 5000000 -Ms ffff0008 -Mt 0 -Is 5.42 -Id -1.42 -It message -Il 200 -If 0 -Ii 5 -Iv 32 
d -t 0.219177449 -Hs 4 -Hd -2 -Ni 4 -Nx 360.00 -Ny 230.00 -Nz 0.00 -Ne -1.000000 -Nl MAC -Nw COL -Ma 0 -Md 5000000 -Ms ffff0008 -Mt 0 -Is 5.42 -Id -1.42 -It message -Il 200 -If 0 -Ii 5 -Iv 32 
d -t 0.219177636 -Hs 6 -Hd -2 -Ni 6 -Nx 360.00 -Ny 390.00 -Nz 0.00 -Ne -1.000000 -Nl MAC -Nw ERR -Ma 0 -Md 5000000 -Ms ffff0008 -Mt 0 -Is 5.42 -Id -1.42 -It message -Il 200 -If 0 -Ii 5 -Iv 32 
d -t 0.219178005 -Hs 3 -Hd -2 -Ni 3 -Nx 200.00 -Ny 160.00 -Nz 0.00 -Ne -1.000000 -Nl MAC -Nw COL -Ma 0 -Md 5000000 -Ms ffff0008 -Mt 0 -Is 5.42 -Id -1.42 -It message -Il 200 -If 0 -Ii 5 -Iv 32 
d -t 0.219178206 -Hs 1 -Hd -2 -Ni 1 -Nx 200.00 -Ny 0.00 -Nz 0.00 -Ne -1.000000 -Nl MAC -Nw COL -Ma 0 -Md 5000000 -Ms ffff0008 -Mt 0 -Is 5.42 -Id -1.42 -It message -Il 200 -If 0 -Ii 5 -Iv 32 
d -t 0.219178315 -Hs 13 -Hd -2 -Ni 13 -Nx 560.00 -Ny 690.00 -Nz 0.00 -Ne -1.000000 -Nl MAC -Nw COL -Ma 0 -Md 5000000 -Ms ffff0008 -Mt 0 -Is 5.42 -Id -1.42 -It message -Il 200 -If 0 -Ii 5 -Iv 32 
d -t 0.219178454 -Hs 12 -Hd -2 -Ni 12 -Nx 360.00 -Ny 690.00 -Nz 0.00 -Ne -1.000000 -Nl MAC -Nw COL -Ma 0 -Md 5000000 -Ms ffff0008 -Mt 0 -Is 5.42 -Id -1.42 -It message -Il 200 -If 0 -Ii 5 -Iv 32 
s -t 0.219427231 -Hs 9 -Hd -2 -Ni 9 -Nx 200.00 -Ny 460.00 -Nz 0.00 -Ne -1.000000 -Nl MAC -Nw --- -Ma 0 -Md 9000000 -Ms ffff0008 -Mt 0 -Is 9.42 -Id -1.42 -It message -Il 200 -If 0 -Ii 6 -Iv 32 
r -t 0.221027764 -Hs 11 -Hd -2 -Ni 11 -Nx 200.00 -Ny 620.00 -Nz 0.00 -Ne -1.000000 -Nl MAC -Nw --- -Ma 0 -Md 9000000 -Ms ffff0008 -Mt 0 -Is 9.42 -Id -1.42 -It message -Il 200 -If 0 -Ii 6 -Iv 32 
r -t 0.221027813 -Hs 6 -Hd -2 -Ni 6 -Nx 360.00 -Ny 390.00 -Nz 0.00 -Ne -1.000000 -Nl MAC -Nw --- -Ma 0 -Md 9000000 -Ms ffff0008 -Mt 0 -Is 9.42 -Id -1.42 -It message -Il 200 -If 0 -Ii 6 -Iv 32 
r -t 0.221027898 -Hs 8 -Hd -2 -Ni 8 -Nx 0.00 -Ny 460.00 -Nz 0.00 -Ne -1.000000 -Nl MAC -Nw --- -Ma 0 -Md 9000000 -Ms ffff0008 -Mt 0 -Is 9.42 -Id -1.42 -It message -Il 200 -If 0 -Ii 6 -Iv 32 
d -t 0.221028085 -Hs 10 -Hd -2 -Ni 10 -Nx 0.00 -Ny 620.00 -Nz 0.00 -Ne -1.000000 -Nl MAC -Nw ERR -Ma 0 -Md 9000000 -Ms ffff0008 -Mt 0 -Is 9.42 -Id -1.42 -It message -Il 200 -If 0 -Ii 6 -Iv 32 
d -t 0.221028165 -Hs 4 -Hd -2 -Ni 4 -Nx 360.00 -Ny 230.00 -Nz 0.00 -Ne -1.000000 -Nl MAC -Nw ERR -Ma 0 -Md 9000000 -Ms ffff0008 -Mt 0 -Is 9.42 -Id -1.42 -It message -Il 200 -If 0 -Ii 6 -Iv 32 
d -t 0.221028165 -Hs 12 -Hd -2 -Ni 12 -Nx 360.00 -Ny 690.00 -Nz 0.00 -Ne -1.000000 -Nl MAC -Nw ERR -Ma 0 -Md 9000000 -Ms ffff0008 -Mt 0 -Is 9.42 -Id -1.42 -It message -Il 200 -If 0 -Ii 6 -Iv 32 
d -t 0.221028231 -Hs 3 -Hd -2 -Ni 3 -Nx 200.00 -Ny 160.00 -Nz 0.00 -Ne -1.000000 -Nl MAC -Nw ERR -Ma 0 -Md 9000000 -Ms ffff0008 -Mt 0 -Is 9.42 -Id -1.42 -It message -Il 200 -If 0 -Ii 6 -Iv 32 
d -t 0.221028433 -Hs 2 -Hd -2 -Ni 2 -Nx 0.00 -Ny 160.00 -Nz 0.00 -Ne -1.000000 -Nl MAC -Nw ERR -Ma 0 -Md 9000000 -Ms ffff0008 -Mt 0 -Is 9.42 -Id -1.42 -It message -Il 200 -If 0 -Ii 6 -Iv 32 
d -t 0.221028453 -Hs 7 -Hd -2 -Ni 7 -Nx 560.00 -Ny 390.00 -Nz 0.00 -Ne -1.000000 -Nl MAC -Nw ERR -Ma 0 -Md 9000000 -Ms ffff0008 -Mt 0 -Is 9.42 -Id -1.42 -It message -Il 200 -If 0 -Ii 6 -Iv 32 
d -t 0.221028636 -Hs 14 -Hd -2 -Ni 14 -Nx 360.00 -Ny 850.00 -Nz 0.00 -Ne -1.000000 -Nl MAC -Nw ERR -Ma 0 -Md 9000000 -Ms ffff0008 -Mt 0 -Is 9.42 -Id -1.42 -It message -Il 200 -If 0 -Ii 6 -Iv 32 
d -t 0.221028655 -Hs 5 -Hd -2 -Ni 5 -Nx 560.00 -Ny 230.00 -Nz 0.00 -Ne -1.000000 -Nl MAC -Nw ERR -Ma 0 -Md 9000000 -Ms ffff0008 -Mt 0 -Is 9.42 -Id -1.42 -It message -Il 200 -If 0 -Ii 6 -Iv 32 
d -t 0.221028655 -Hs 13 -Hd -2 -Ni 13 -Nx 560.00 -Ny 690.00 -Nz 0.00 -Ne -1.000000 -Nl MAC -Nw ERR -Ma 0 -Md 9000000 -Ms ffff0008 -Mt 0 -Is 9.42 -Id -1.42 -It message -Il 200 -If 0 -Ii 6 -Iv 32 
d -t 0.221028764 -Hs 1 -Hd -2 -Ni 1 -Nx 200.00 -Ny 0.00 -Nz 0.00 -Ne -1.000000 -Nl MAC -Nw ERR -Ma 0 -Md 9000000 -Ms ffff0008 -Mt 0 -Is 9.42 -Id -1.42 -It message -Il 200 -If 0 -Ii 6 -Iv 32 
d -t 0.221028764 -Hs 17 -Hd -2 -Ni 17 -Nx 200.00 -Ny 920.00 -Nz 0.00 -Ne -1.000000 -Nl MAC -Nw ERR -Ma 0 -Md 9000000 -Ms ffff0008 -Mt 0 -Is 9.42 -Id -1.42 -It message -Il 200 -If 0 -Ii 6 -Iv 32 
d -t 0.221028903 -Hs 16 -Hd -2 -Ni 16 -Nx 0.00 -Ny 920.00 -Nz 0.00 -Ne -1.000000 -Nl MAC -Nw ERR -Ma 0 -Md 9000000 -Ms ffff0008 -Mt 0 -Is 9.42 -Id -1.42 -It message -Il 200 -If 0 -Ii 6 -Iv 32 
d -t 0.221028903 -Hs 0 -Hd -2 -Ni 0 -Nx 0.00 -Ny 0.00 -Nz 0.00 -Ne -1.000000 -Nl MAC -Nw ERR -Ma 0 -Md 9000000 -Ms ffff0008 -Mt 0 -Is 9.42 -Id -1.42 -It message -Il 200 -If 0 -Ii 6 -Iv 32 
d -t 0.221029000 -Hs 15 -Hd -2 -Ni 15 -Nx 560.00 -Ny 850.00 -Nz 0.00 -Ne -1.000000 -Nl MAC -Nw ERR -Ma 0 -Md 9000000 -Ms ffff0008 -Mt 0 -Is 9.42 -Id -1.42 -It message -Il 200 -If 0 -Ii 6 -Iv 32 
r -t 0.221052764 -Hs 11 -Hd -2 -Ni 11 -Nx 200.00 -Ny 620.00 -Nz 0.00 -Ne -1.000000 -Nl AGT -Nw --- -Ma 0 -Md 9000000 -Ms ffff0008 -Mt 0 -Is 9.42 -Id -1.42 -It message -Il 200 -If 0 -Ii 6 -Iv 32 
v 0.22105276428327972 eval {set sim_annotation {11 received {1:first message} from 9}}
v 0.22105276428327972 eval {set sim_annotation {11 sending message 1}}
s -t 0.221052764 -Hs 11 -Hd -2 -Ni 11 -Nx 200.00 -Ny 620.00 -Nz 0.00 -Ne -1.000000 -Nl AGT -Nw --- -Ma 0 -Md 0 -Ms 0 -Mt 0 -Is 11.42 -Id -1.42 -It message -Il 200 -If 0 -Ii 7 -Iv 32 
r -t 0.221052813 -Hs 6 -Hd -2 -Ni 6 -Nx 360.00 -Ny 390.00 -Nz 0.00 -Ne -1.000000 -Nl AGT -Nw --- -Ma 0 -Md 9000000 -Ms ffff0008 -Mt 0 -Is 9.42 -Id -1.42 -It message -Il 200 -If 0 -Ii 6 -Iv 32 
v 0.22105281309158628 eval {set sim_annotation {6 received redundant message 1 from 9}}
r -t 0.221052898 -Hs 8 -Hd -2 -Ni 8 -Nx 0.00 -Ny 460.00 -Nz 0.00 -Ne -1.000000 -Nl AGT -Nw --- -Ma 0 -Md 9000000 -Ms ffff0008 -Mt 0 -Is 9.42 -Id -1.42 -It message -Il 200 -If 0 -Ii 6 -Iv 32 
v 0.22105289761661306 eval {set sim_annotation {8 received {1:first message} from 9}}
v 0.22105289761661306 eval {set sim_annotation {8 sending message 1}}
s -t 0.221052898 -Hs 8 -Hd -2 -Ni 8 -Nx 0.00 -Ny 460.00 -Nz 0.00 -Ne -1.000000 -Nl AGT -Nw --- -Ma 0 -Md 0 -Ms 0 -Mt 0 -Is 8.42 -Id -1.42 -It message -Il 200 -If 0 -Ii 8 -Iv 32 
s -t 0.221977764 -Hs 11 -Hd -2 -Ni 11 -Nx 200.00 -Ny 620.00 -Nz 0.00 -Ne -1.000000 -Nl MAC -Nw --- -Ma 0 -Md b000000 -Ms ffff0008 -Mt 0 -Is 11.42 -Id -1.42 -It message -Il 200 -If 0 -Ii 7 -Iv 32 
s -t 0.223577898 -Hs 8 -Hd -2 -Ni 8 -Nx 0.00 -Ny 460.00 -Nz 0.00 -Ne -1.000000 -Nl MAC -Nw --- -Ma 0 -Md 8000000 -Ms ffff0008 -Mt 0 -Is 8.42 -Id -1.42 -It message -Il 200 -If 0 -Ii 8 -Iv 32 
r -t 0.223578298 -Hs 9 -Hd -2 -Ni 9 -Nx 200.00 -Ny 460.00 -Nz 0.00 -Ne -1.000000 -Nl MAC -Nw --- -Ma 0 -Md b000000 -Ms ffff0008 -Mt 0 -Is 11.42 -Id -1.42 -It message -Il 200 -If 0 -Ii 7 -Iv 32 
r -t 0.223578346 -Hs 12 -Hd -2 -Ni 12 -Nx 360.00 -Ny 690.00 -Nz 0.00 -Ne -1.000000 -Nl MAC -Nw --- -Ma 0 -Md b000000 -Ms ffff0008 -Mt 0 -Is 11.42 -Id -1.42 -It message -Il 200 -If 0 -Ii 7 -Iv 32 
r -t 0.223578431 -Hs 10 -Hd -2 -Ni 10 -Nx 0.00 -Ny 620.00 -Nz 0.00 -Ne -1.000000 -Nl MAC -Nw --- -Ma 0 -Md b000000 -Ms ffff0008 -Mt 0 -Is 11.42 -Id -1.42 -It message -Il 200 -If 0 -Ii 7 -Iv 32 
d -t 0.223578698 -Hs 6 -Hd -2 -Ni 6 -Nx 360.00 -Ny 390.00 -Nz 0.00 -Ne -1.000000 -Nl MAC -Nw ERR -Ma 0 -Md b000000 -Ms ffff0008 -Mt 0 -Is 11.42 -Id -1.42 -It message -Il 200 -If 0 -Ii 7 -Iv 32 
d -t 0.223578698 -Hs 14 -Hd -2 -Ni 14 -Nx 360.00 -Ny 850.00 -Nz 0.00 -Ne -1.000000 -Nl MAC -Nw ERR -Ma 0 -Md b000000 -Ms ffff0008 -Mt 0 -Is 11.42 -Id -1.42 -It message -Il 200 -If 0 -Ii 7 -Iv 32 
d -t 0.223578764 -Hs 17 -Hd -2 -Ni 17 -Nx 200.00 -Ny 920.00 -Nz 0.00 -Ne -1.000000 -Nl MAC -Nw ERR -Ma 0 -Md b000000 -Ms ffff0008 -Mt 0 -Is 11.42 -Id -1.42 -It message -Il 200 -If 0 -Ii 7 -Iv 32 
d -t 0.223578966 -Hs 16 -Hd -2 -Ni 16 -Nx 0.00 -Ny 920.00 -Nz 0.00 -Ne -1.000000 -Nl MAC -Nw ERR -Ma 0 -Md b000000 -Ms ffff0008 -Mt 0 -Is 11.42 -Id -1.42 -It message -Il 200 -If 0 -Ii 7 -Iv 32 
d -t 0.223578987 -Hs 13 -Hd -2 -Ni 13 -Nx 560.00 -Ny 690.00 -Nz 0.00 -Ne -1.000000 -Nl MAC -Nw ERR -Ma 0 -Md b000000 -Ms ffff0008 -Mt 0 -Is 11.42 -Id -1.42 -It message -Il 200 -If 0 -Ii 7 -Iv 32 
d -t 0.223579169 -Hs 4 -Hd -2 -Ni 4 -Nx 360.00 -Ny 230.00 -Nz 0.00 -Ne -1.000000 -Nl MAC -Nw ERR -Ma 0 -Md b000000 -Ms ffff0008 -Mt 0 -Is 11.42 -Id -1.42 -It message -Il 200 -If 0 -Ii 7 -Iv 32 
d -t 0.223579188 -Hs 7 -Hd -2 -Ni 7 -Nx 560.00 -Ny 390.00 -Nz 0.00 -Ne -1.000000 -Nl MAC -Nw ERR -Ma 0 -Md b000000 -Ms ffff0008 -Mt 0 -Is 11.42 -Id -1.42 -It message -Il 200 -If 0 -Ii 7 -Iv 32 
d -t 0.223579188 -Hs 15 -Hd -2 -Ni 15 -Nx 560.00 -Ny 850.00 -Nz 0.00 -Ne -1.000000 -Nl MAC -Nw ERR -Ma 0 -Md b000000 -Ms ffff0008 -Mt 0 -Is 11.42 -Id -1.42 -It message -Il 200 -If 0 -Ii 7 -Iv 32 
d -t 0.223579298 -Hs 19 -Hd -2 -Ni 19 -Nx 200.00 -Ny 1080.00 -Nz 0.00 -Ne -1.000000 -Nl MAC -Nw ERR -Ma 0 -Md b000000 -Ms ffff0008 -Mt 0 -Is 11.42 -Id -1.42 -It message -Il 200 -If 0 -Ii 7 -Iv 32 
d -t 0.223579436 -Hs 18 -Hd -2 -Ni 18 -Nx 0.00 -Ny 1080.00 -Nz 0.00 -Ne -1.000000 -Nl MAC -Nw ERR -Ma 0 -Md b000000 -Ms ffff0008 -Mt 0 -Is 11.42 -Id -1.42 -It message -Il 200 -If 0 -Ii 7 -Iv 32 
d -t 0.223579533 -Hs 5 -Hd -2 -Ni 5 -Nx 560.00 -Ny 230.00 -Nz 0.00 -Ne -1.000000 -Nl MAC -Nw ERR -Ma 0 -Md b000000 -Ms ffff0008 -Mt 0 -Is 11.42 -Id -1.42 -It message -Il 200 -If 0 -Ii 7 -Iv 32 
r -t 0.223603298 -Hs 9 -Hd -2 -Ni 9 -Nx 200.00 -Ny 460.00 -Nz 0.00 -Ne -1.000000 -Nl AGT -Nw --- -Ma 0 -Md b000000 -Ms ffff0008 -Mt 0 -Is 11.42 -Id -1.42 -It message -Il 200 -If 0 -Ii 7 -Iv 32 
v 0.22360329761661304 eval {set sim_annotation {9 received redundant message 1 from 11}}
r -t 0.223603346 -Hs 12 -Hd -2 -Ni 12 -Nx 360.00 -Ny 690.00 -Nz 0.00 -Ne -1.000000 -Nl AGT -Nw --- -Ma 0 -Md b000000 -Ms ffff0008 -Mt 0 -Is 11.42 -Id -1.42 -It message -Il 200 -If 0 -Ii 7 -Iv 32 
v 0.22360334642491961 eval {set sim_annotation {12 received {1:first message} from 11}}
v 0.22360334642491961 eval {set sim_annotation {12 sending message 1}}
s -t 0.223603346 -Hs 12 -Hd -2 -Ni 12 -Nx 360.00 -Ny 690.00 -Nz 0.00 -Ne -1.000000 -Nl AGT -Nw --- -Ma 0 -Md 0 -Ms 0 -Mt 0 -Is 12.42 -Id -1.42 -It message -Il 200 -If 0 -Ii 9 -Iv 32 
r -t 0.223603431 -Hs 10 -Hd -2 -Ni 10 -Nx 0.00 -Ny 620.00 -Nz 0.00 -Ne -1.000000 -Nl AGT -Nw --- -Ma 0 -Md b000000 -Ms ffff0008 -Mt 0 -Is 11.42 -Id -1.42 -It message -Il 200 -If 0 -Ii 7 -Iv 32 
v 0.22360343094994639 eval {set sim_annotation {10 received {1:first message} from 11}}
v 0.22360343094994639 eval {set sim_annotation {10 sending message 1}}
s -t 0.223603431 -Hs 10 -Hd -2 -Ni 10 -Nx 0.00 -Ny 620.00 -Nz 0.00 -Ne -1.000000 -Nl AGT -Nw --- -Ma 0 -Md 0 -Ms 0 -Mt 0 -Is 10.42 -Id -1.42 -It message -Il 200 -If 0 -Ii 10 -Iv 32 
s -t 0.224428346 -Hs 12 -Hd -2 -Ni 12 -Nx 360.00 -Ny 690.00 -Nz 0.00 -Ne -1.000000 -Nl MAC -Nw --- -Ma 0 -Md c000000 -Ms ffff0008 -Mt 0 -Is 12.42 -Id -1.42 -It message -Il 200 -If 0 -Ii 9 -Iv 32 
r -t 0.225178431 -Hs 10 -Hd -2 -Ni 10 -Nx 0.00 -Ny 620.00 -Nz 0.00 -Ne -1.000000 -Nl MAC -Nw --- -Ma 0 -Md 8000000 -Ms ffff0008 -Mt 0 -Is 8.42 -Id -1.42 -It message -Il 200 -If 0 -Ii 8 -Iv 32 
d -t 0.225178898 -Hs 2 -Hd -2 -Ni 2 -Nx 0.00 -Ny 160.00 -Nz 0.00 -Ne -1.000000 -Nl MAC -Nw COL -Ma 0 -Md 8000000 -Ms ffff0008 -Mt 0 -Is 8.42 -Id -1.42 -It message -Il 200 -If 0 -Ii 8 -Iv 32 
d -t 0.225179099 -Hs 3 -Hd -2 -Ni 3 -Nx 200.00 -Ny 160.00 -Nz 0.00 -Ne -1.000000 -Nl MAC -Nw COL -Ma 0 -Md 8000000 -Ms ffff0008 -Mt 0 -Is 8.42 -Id -1.42 -It message -Il 200 -If 0 -Ii 8 -Iv 32 
d -t 0.225179431 -Hs 0 -Hd -2 -Ni 0 -Nx 0.00 -Ny 0.00 -Nz 0.00 -Ne -1.000000 -Nl MAC -Nw ERR -Ma 0 -Md 8000000 -Ms ffff0008 -Mt 0 -Is 8.42 -Id -1.42 -It message -Il 200 -If 0 -Ii 8 -Iv 32 
d -t 0.225179570 -Hs 1 -Hd -2 -Ni 1 -Nx 200.00 -Ny 0.00 -Nz 0.00 -Ne -1.000000 -Nl MAC -Nw ERR -Ma 0 -Md 8000000 -Ms ffff0008 -Mt 0 -Is 8.42 -Id -1.42 -It message -Il 200 -If 0 -Ii 8 -Iv 32 
r -t 0.225203431 -Hs 10 -Hd -2 -Ni 10 -Nx 0.00 -Ny 620.00 -Nz 0.00 -Ne -1.000000 -Nl AGT -Nw --- -Ma 0 -Md 8000000 -Ms ffff0008 -Mt 0 -Is 8.42 -Id -1.42 -It message -Il 200 -If 0 -Ii 8 -Iv 32 
v 0.22520343094994638 eval {set sim_annotation {10 received redundant message 1 from 8}}
s -t 0.225828431 -Hs 10 -Hd -2 -Ni 10 -Nx 0.00 -Ny 620.00 -Nz 0.00 -Ne -1.000000 -Nl MAC -Nw --- -Ma 0 -Md a000000 -Ms ffff0008 -Mt 0 -Is 10.42 -Id -1.42 -It message -Il 200 -If 0 -Ii 10 -Iv 32 
d -t 0.226028880 -Hs 14 -Hd -2 -Ni 14 -Nx 360.00 -Ny 850.00 -Nz 0.00 -Ne -1.000000 -Nl MAC -Nw COL -Ma 0 -Md c000000 -Ms ffff0008 -Mt 0 -Is 12.42 -Id -1.42 -It message -Il 200 -If 0 -Ii 9 -Iv 32 
r -t 0.226029013 -Hs 13 -Hd -2 -Ni 13 -Nx 560.00 -Ny 690.00 -Nz 0.00 -Ne -1.000000 -Nl MAC -Nw --- -Ma 0 -Md c000000 -Ms ffff0008 -Mt 0 -Is 12.42 -Id -1.42 -It message -Il 200 -If 0 -Ii 9 -Iv 32 
d -t 0.226029200 -Hs 15 -Hd -2 -Ni 15 -Nx 560.00 -Ny 850.00 -Nz 0.00 -Ne -1.000000 -Nl MAC -Nw ERR -Ma 0 -Md c000000 -Ms ffff0008 -Mt 0 -Is 12.42 -Id -1.42 -It message -Il 200 -If 0 -Ii 9 -Iv 32 
d -t 0.226029548 -Hs 7 -Hd -2 -Ni 7 -Nx 560.00 -Ny 390.00 -Nz 0.00 -Ne -1.000000 -Nl MAC -Nw ERR -Ma 0 -Md c000000 -Ms ffff0008 -Mt 0 -Is 12.42 -Id -1.42 -It message -Il 200 -If 0 -Ii 9 -Iv 32 
d -t 0.226029880 -Hs 20 -Hd -2 -Ni 20 -Nx 360.00 -Ny 1150.00 -Nz 0.00 -Ne -1.000000 -Nl MAC -Nw ERR -Ma 0 -Md c000000 -Ms ffff0008 -Mt 0 -Is 12.42 -Id -1.42 -It message -Il 200 -If 0 -Ii 9 -Iv 32 
d -t 0.226030018 -Hs 5 -Hd -2 -Ni 5 -Nx 560.00 -Ny 230.00 -Nz 0.00 -Ne -1.000000 -Nl MAC -Nw ERR -Ma 0 -Md c000000 -Ms ffff0008 -Mt 0 -Is 12.42 -Id -1.42 -It message -Il 200 -If 0 -Ii 9 -Iv 32 
d -t 0.226030018 -Hs 21 -Hd -2 -Ni 21 -Nx 560.00 -Ny 1150.00 -Nz 0.00 -Ne -1.000000 -Nl MAC -Nw ERR -Ma 0 -Md c000000 -Ms ffff0008 -Mt 0 -Is 12.42 -Id -1.42 -It message -Il 200 -If 0 -Ii 9 -Iv 32 
r -t 0.226054013 -Hs 13 -Hd -2 -Ni 13 -Nx 560.00 -Ny 690.00 -Nz 0.00 -Ne -1.000000 -Nl AGT -Nw --- -Ma 0 -Md c000000 -Ms ffff0008 -Mt 0 -Is 12.42 -Id -1.42 -It message -Il 200 -If 0 -Ii 9 -Iv 32 
v 0.22605401309158626 eval {set sim_annotation {13 received {1:first message} from 12}}
v 0.22605401309158626 eval {set sim_annotation {13 sending message 1}}
s -t 0.226054013 -Hs 13 -Hd -2 -Ni 13 -Nx 560.00 -Ny 690.00 -Nz 0.00 -Ne -1.000000 -Nl AGT -Nw --- -Ma 0 -Md 0 -Ms 0 -Mt 0 -Is 13.42 -Id -1.42 -It message -Il 200 -If 0 -Ii 11 -Iv 32 
d -t 0.227428964 -Hs 8 -Hd -2 -Ni 8 -Nx 0.00 -Ny 460.00 -Nz 0.00 -Ne -1.000000 -Nl MAC -Nw COL -Ma 0 -Md a000000 -Ms ffff0008 -Mt 0 -Is 10.42 -Id -1.42 -It message -Il 200 -If 0 -Ii 10 -Iv 32 
d -t 0.227429098 -Hs 11 -Hd -2 -Ni 11 -Nx 200.00 -Ny 620.00 -Nz 0.00 -Ne -1.000000 -Nl MAC -Nw COL -Ma 0 -Md a000000 -Ms ffff0008 -Mt 0 -Is 10.42 -Id -1.42 -It message -Il 200 -If 0 -Ii 10 -Iv 32 
d -t 0.227429285 -Hs 9 -Hd -2 -Ni 9 -Nx 200.00 -Ny 460.00 -Nz 0.00 -Ne -1.000000 -Nl MAC -Nw COL -Ma 0 -Md a000000 -Ms ffff0008 -Mt 0 -Is 10.42 -Id -1.42 -It message -Il 200 -If 0 -Ii 10 -Iv 32 
d -t 0.227429431 -Hs 16 -Hd -2 -Ni 16 -Nx 0.00 -Ny 920.00 -Nz 0.00 -Ne -1.000000 -Nl MAC -Nw COL -Ma 0 -Md a000000 -Ms ffff0008 -Mt 0 -Is 10.42 -Id -1.42 -It message -Il 200 -If 0 -Ii 10 -Iv 32 
d -t 0.227429633 -Hs 17 -Hd -2 -Ni 17 -Nx 200.00 -Ny 920.00 -Nz 0.00 -Ne -1.000000 -Nl MAC -Nw COL -Ma 0 -Md a000000 -Ms ffff0008 -Mt 0 -Is 10.42 -Id -1.42 -It message -Il 200 -If 0 -Ii 10 -Iv 32 
d -t 0.227429855 -Hs 6 -Hd -2 -Ni 6 -Nx 360.00 -Ny 390.00 -Nz 0.00 -Ne -1.000000 -Nl MAC -Nw COL -Ma 0 -Md a000000 -Ms ffff0008 -Mt 0 -Is 10.42 -Id -1.42 -It message -Il 200 -If 0 -Ii 10 -Iv 32 
d -t 0.227429964 -Hs 2 -Hd -2 -Ni 2 -Nx 0.00 -Ny 160.00 -Nz 0.00 -Ne -1.000000 -Nl MAC -Nw ERR -Ma 0 -Md a000000 -Ms ffff0008 -Mt 0 -Is 10.42 -Id -1.42 -It message -Il 200 -If 0 -Ii 10 -Iv 32 
d -t 0.227429964 -Hs 18 -Hd -2 -Ni 18 -Nx 0.00 -Ny 1080.00 -Nz 0.00 -Ne -1.000000 -Nl MAC -Nw COL -Ma 0 -Md a000000 -Ms ffff0008 -Mt 0 -Is 10.42 -Id -1.42 -It message -Il 200 -If 0 -Ii 10 -Iv 32 
d -t 0.227430103 -Hs 3 -Hd -2 -Ni 3 -Nx 200.00 -Ny 160.00 -Nz 0.00 -Ne -1.000000 -Nl MAC -Nw ERR -Ma 0 -Md a000000 -Ms ffff0008 -Mt 0 -Is 10.42 -Id -1.42 -It message -Il 200 -If 0 -Ii 10 -Iv 32 
d -t 0.227430103 -Hs 19 -Hd -2 -Ni 19 -Nx 200.00 -Ny 1080.00 -Nz 0.00 -Ne -1.000000 -Nl MAC -Nw COL -Ma 0 -Md a000000 -Ms ffff0008 -Mt 0 -Is 10.42 -Id -1.42 -It message -Il 200 -If 0 -Ii 10 -Iv 32 
d -t 0.227430200 -Hs 4 -Hd -2 -Ni 4 -Nx 360.00 -Ny 230.00 -Nz 0.00 -Ne -1.000000 -Nl MAC -Nw COL -Ma 0 -Md a000000 -Ms ffff0008 -Mt 0 -Is 10.42 -Id -1.42 -It message -Il 200 -If 0 -Ii 10 -Iv 32 
s -t 0.229979013 -Hs 13 -Hd -2 -Ni 13 -Nx 560.00 -Ny 690.00 -Nz 0.00 -Ne -1.000000 -Nl MAC -Nw --- -Ma 0 -Md d000000 -Ms ffff0008 -Mt 0 -Is 13.42 -Id -1.42 -It message -Il 200 -If 0 -Ii 11 -Iv 32 
r -t 0.231579546 -Hs 15 -Hd -2 -Ni 15 -Nx 560.00 -Ny 850.00 -Nz 0.00 -Ne -1.000000 -Nl MAC -Nw --- -Ma 0 -Md d000000 -Ms ffff0008 -Mt 0 -Is 13.42 -Id -1.42 -It message -Il 200 -If 0 -Ii 11 -Iv 32 
r -t 0.231579680 -Hs 12 -Hd -2 -Ni 12 -Nx 360.00 -Ny 690.00 -Nz 0.00 -Ne -1.000000 -Nl MAC -Nw --- -Ma 0 -Md d000000 -Ms ffff0008 -Mt 0 -Is 13.42 -Id -1.42 -It message -Il 200 -If 0 -Ii 11 -Iv 32 
d -t 0.231579867 -Hs 14 -Hd -2 -Ni 14 -Nx 360.00 -Ny 850.00 -Nz 0.00 -Ne -1.000000 -Nl MAC -Nw ERR -Ma 0 -Md d000000 -Ms ffff0008 -Mt 0 -Is 13.42 -Id -1.42 -It message -Il 200 -If 0 -Ii 11 -Iv 32 